LAMMPS data file via write_data, version 16 Mar 2018, timestep = 900000

32936 atoms
0 bonds
0 angles
0 dihedrals
0 impropers
14 atom types
0 bond types
0 angle types
0 dihedral types
0 improper types

0 201.685468 xlo xhi
0 30.252820 ylo yhi
-70 70 zlo zhi

Masses

1 12.0112
2 12.0112
3 12.0112
4 12.0112
5 12.0112
6 15.9994
7 12.0112
8 15.9994
9 14.0067
10 15.9994
11 1.00797
12 1.00797
13 1.00797
14 2.0159

Pair Coeffs # lj/class2/coul/cut

1 0.064 4.01 # cp 3.8510  0.1050E+00
2 0.054 4.01 # c3 3.8510  0.1050E+00
3 0.054 4.01 # c2 3.8510  0.1050E+00
4 0.054 4.01 # c1 3.8510  0.1050E+00
5 0.12 3.308 # c_0 3.8510  0.1050E+00
6 0.267 3.3 # o_1 3.5000  0.6000E-01
7 0.064 4.01 # c5 3.8510  0.1050E+00
8 0.24 3.535 # oh 3.5000  0.6000E-01
9 0.134 4.07 # nh 3.6600  0.6900E-01
10 0.24 3.535 # oc  3.5000  0.6000E-01
11 0.02 2.995 # hc 2.8860  0.4400E-01
12 0.013 1.098 # ho 2.8860  0.4400E-01
13 0.013 1.098 # hn 2.8860  0.4400E-01

Atoms # atomic

1	1	24.468812 	9.565061 	39.331984 
2	1	23.626209 	8.582487 	39.840123 
3	1	22.363788 	8.401669 	39.297573 
4	1	22.042884 	9.129603 	38.118389 
5	1	22.896250 	10.204242 	37.662568 
6	1	24.089358 	10.420325 	38.309633 
7	1	22.508357 	10.845730 	36.472218 
8	1	21.713137 	10.202656 	35.550300 
9	1	20.948936 	9.065759 	35.972935 
10	1	20.989983 	8.666923 	37.304264 
11	1	20.072514 	8.466941 	35.059404 
12	1	20.099337 	8.737524 	33.743978 
13	1	21.112882 	9.507500 	33.201477 
14	1	21.918507 	10.272596 	34.121539 
15	2	21.252293 	9.622935 	31.700882 
16	3	19.067386 	8.014952 	32.862119 
17	2	19.826716 	7.002347 	31.986391 
18	1	22.745890 	12.214436 	32.975501 
19	1	22.957423 	10.977635 	33.594280 
20	1	24.286625 	10.485449 	33.566966 
21	1	25.331551 	11.185442 	32.885576 
22	1	25.055242 	12.355834 	32.227827 
23	1	23.776449 	12.901001 	32.279709 
24	1	26.554762 	10.614770 	33.014671 
25	1	26.883201 	9.434363 	33.611686 
26	1	25.882890 	8.713739 	34.245810 
27	1	24.602254 	9.268385 	34.215097 
28	3	26.166030 	7.301214 	34.762398 
29	3	27.445947 	6.784991 	34.144824 
30	4	28.559163 	7.780176 	34.546785 
31	3	28.343999 	9.020781 	33.687887 
32	2	28.675020 	8.186143 	35.984189 
33	1	25.773674 	11.927314 	39.219168 
34	4	25.016858 	11.470963 	37.944915 
35	5	25.941585 	11.101578 	36.748769 
36	5	27.031988 	11.174225 	36.828661 
37	3	27.859333 	10.974555 	38.086557 
38	1	27.160887 	11.713058 	39.234746 
39	1	25.110745 	12.591939 	40.217244 
40	1	25.814022 	13.105675 	41.273127 
41	1	27.242998 	12.916014 	41.315735 
42	1	27.839952 	12.187571 	40.295996 
43	1	27.915139 	13.451272 	42.467977 
44	1	27.192463 	14.381056 	43.218825 
45	1	25.779625 	14.538792 	43.149309 
46	1	25.097367 	13.720963 	42.307559 
47	1	25.134578 	15.711021 	43.742876 
48	1	26.046234 	16.686320 	44.215732 
49	1	27.427936 	16.454818 	44.336875 
50	1	27.970505 	15.327900 	43.831143 
51	1	28.302522 	17.521524 	44.812922 
52	1	27.714082 	18.698327 	45.253436 
53	1	26.360898 	18.909964 	45.142382 
54	1	25.542500 	17.870205 	44.716638 
55	3	24.082169 	18.264067 	44.527497 
56	3	23.307406 	17.011188 	44.800594 
57	3	23.677082 	15.944504 	43.770671 
58	6	26.884903 	12.311951 	36.377718 
59	6	26.804885 	11.948308 	36.492754 
60	3	27.599933 	11.148262 	32.062061 
61	1	28.555914 	16.602395 	34.918592 
62	1	27.909207 	15.410024 	34.466655 
63	1	28.531374 	14.449195 	33.664205 
64	1	29.806662 	14.766007 	33.121701 
65	1	30.428384 	15.978926 	33.296514 
66	1	29.781057 	16.942359 	34.193113 
67	1	28.279457 	17.183784 	36.150962 
68	1	29.156649 	18.006247 	36.771058 
69	1	30.275981 	18.505590 	36.020049 
70	1	30.357343 	18.093676 	34.703218 
71	1	30.541837 	13.730739 	32.453473 
72	1	29.870808 	12.525413 	32.039495 
73	1	28.503925 	12.324160 	32.523838 
74	1	27.938630 	13.253046 	33.353393 
75	1	30.378986 	11.796577 	30.966272 
76	1	31.126627 	10.605786 	31.141718 
77	1	31.017475 	9.524956 	30.244749 
78	1	30.335024 	9.760255 	29.041641 
79	1	29.799496 	11.028539 	28.791580 
80	1	29.788488 	12.035491 	29.715100 
81	1	29.795234 	8.580005 	28.495643 
82	1	29.727836 	7.374430 	29.184273 
83	1	30.470262 	7.146461 	30.318328 
84	1	31.217150 	8.238278 	30.752425 
85	2	28.794402 	13.192161 	29.421353 
86	5	28.860302 	8.568334 	27.350741 
87	6	27.824612 	9.271048 	27.312040 
88	2	30.421355 	5.874313 	31.200805 
89	3	28.972419 	6.139058 	28.549385 
90	7	27.587532 	6.175726 	29.154952 
91	7	26.989592 	7.248061 	29.752887 
92	7	25.719671 	5.463419 	30.148009 
93	7	26.849856 	5.038156 	29.500271 
94	8	27.327526 	3.821506 	29.161199 
95	3	24.692215 	4.572294 	30.698244 
96	2	23.696845 	5.401871 	31.470638 
97	9	25.873156 	6.821271 	30.307542 
98	1	31.951717 	20.748426 	38.548571 
99	1	30.954149 	20.199607 	37.756464 
100	1	31.266378 	19.235763 	36.776649 
101	1	32.634884 	19.047544 	36.547949 
102	1	33.689521 	19.590241 	37.341726 
103	1	33.227797 	20.189855 	38.533521 
104	1	31.629177 	21.921377 	39.280082 
105	1	30.317465 	22.380230 	39.449055 
106	1	29.317700 	21.734352 	38.737882 
107	1	29.633777 	20.696079 	37.859791 
108	1	35.368988 	21.220929 	36.896847 
109	1	34.929016 	19.890010 	36.773232 
110	1	35.611513 	19.018949 	35.878204 
111	1	36.338532 	19.618420 	34.881834 
112	1	36.538279 	20.984961 	34.788114 
113	1	36.135540 	21.747585 	35.868220 
114	1	36.811250 	18.809763 	33.777383 
115	1	36.374533 	17.487427 	33.616227 
116	1	35.601193 	16.921514 	34.611469 
117	1	35.278068 	17.703841 	35.704846 
118	3	35.066457 	15.524184 	34.465470 
119	5	35.722224 	14.775365 	33.322572 
120	5	36.714188 	15.259721 	32.706253 
121	3	36.842494 	16.700342 	32.400125 
122	6	37.537391 	14.739361 	33.473115 
123	6	36.922762 	14.508256 	33.287910 
124	1	39.825975 	17.202334 	43.222228 
125	1	39.288425 	17.819223 	42.118580 
126	1	37.942189 	18.237233 	42.202572 
127	1	37.153701 	17.966130 	43.332521 
128	1	37.736110 	17.190408 	44.348365 
129	1	39.050149 	16.834972 	44.314988 
130	1	35.817060 	18.373659 	43.397187 
131	1	35.067442 	18.806854 	42.233354 
132	1	35.843515 	18.836346 	41.028295 
133	1	37.295170 	18.720437 	41.059985 
134	1	35.269594 	19.434894 	39.864441 
135	1	33.941901 	19.938215 	39.808354 
136	1	33.252809 	19.871849 	41.034779 
137	1	33.834778 	19.454545 	42.202170 
138	1	36.957132 	21.025664 	30.799068 
139	1	36.535699 	19.971968 	31.656091 
140	1	37.391505 	19.405553 	32.646751 
141	1	38.825441 	19.633542 	32.495906 
142	1	39.340994 	20.488357 	31.534563 
143	1	38.386190 	21.173897 	30.652570 
144	1	40.632349 	20.951305 	31.683032 
145	1	41.402313 	20.628524 	32.822591 
146	1	40.794133 	19.807073 	33.818664 
147	1	39.623878 	19.141981 	33.537669 
148	7	35.240371 	24.192102 	30.174351 
149	7	36.088690 	22.134427 	30.527628 
150	7	34.696213 	22.055349 	30.393685 
151	7	34.195799 	23.328502 	30.160658 
152	3	32.848462 	23.938157 	30.244761 
153	1	42.752772 	20.975884 	32.800793 
154	1	43.332038 	21.299463 	34.026465 
155	1	44.708119 	21.390333 	34.206382 
156	1	45.601300 	21.333957 	33.053560 
157	1	44.984659 	21.125161 	31.766940 
158	1	43.629140 	20.920845 	31.673122 
159	1	46.976079 	21.450883 	33.242165 
160	1	47.534472 	21.639036 	34.532918 
161	1	46.644449 	21.536792 	35.643374 
162	1	45.279330 	21.415902 	35.482586 
163	1	47.157404 	21.754259 	36.921358 
164	1	48.527363 	21.981079 	37.171614 
165	1	49.383208 	22.079439 	36.039380 
166	1	48.927610 	21.819703 	34.773852 
167	1	50.680725 	22.488104 	36.386826 
168	1	51.132689 	22.684725 	37.677249 
169	1	50.257383 	22.583377 	38.788870 
170	1	48.968535 	22.294090 	38.503192 
171	3	47.979544 	21.370488 	32.083517 
172	3	49.378460 	20.892958 	32.547319 
173	3	49.955302 	21.745616 	33.640287 
174	1	55.755778 	27.780542 	40.153859 
175	1	55.735590 	26.773662 	41.117142 
176	1	54.683034 	25.794981 	41.086096 
177	1	53.842835 	25.753872 	39.957071 
178	1	54.001577 	26.787878 	38.995140 
179	1	54.872532 	27.855078 	39.094023 
180	1	52.791539 	24.766074 	39.928487 
181	1	52.616631 	23.968264 	41.068379 
182	1	53.331602 	24.212702 	42.281794 
183	1	54.410768 	25.119014 	42.228591 
184	1	52.978267 	23.611822 	43.481352 
185	1	51.718742 	23.065832 	43.619317 
186	1	51.028594 	22.655091 	42.441134 
187	1	51.559261 	23.080757 	41.133942 
188	1	49.717591 	22.293695 	42.522811 
189	1	48.997442 	22.336678 	43.711529 
190	1	49.719176 	22.608134 	44.940022 
191	1	51.091639 	22.983096 	44.855219 
192	1	48.969094 	22.694012 	46.170087 
193	1	47.617209 	22.433203 	46.080653 
194	1	46.912546 	22.165360 	44.874621 
195	1	47.588700 	22.185739 	43.640006 
196	5	45.421188 	22.317782 	44.791400 
197	3	44.718450 	22.122523 	46.085233 
198	3	45.560446 	21.707980 	47.340453 
199	5	46.897959 	22.352254 	47.310712 
200	6	44.847713 	22.669737 	43.780536 
201	6	47.317045 	22.893239 	48.334761 
202	10	50.769774 	22.831823 	40.024302 
203	9	36.431348 	23.414443 	30.370138 
204	11	25.472895 	9.572369 	39.752136 
205	11	23.808244 	8.004033 	40.740655 
206	11	21.816082 	7.561231 	39.590999 
207	11	23.187712 	11.608884 	36.118598 
208	11	20.286187 	7.842188 	37.633504 
209	11	19.405847 	7.641439 	35.433185 
210	11	21.998734 	8.892583 	31.328168 
211	11	21.637337 	10.546928 	31.304868 
212	11	20.273492 	9.540279 	31.174628 
213	11	18.593788 	8.805485 	32.326834 
214	11	18.412714 	7.521705 	33.577231 
215	11	20.038968 	7.231052 	30.926372 
216	11	19.456259 	6.005374 	32.009472 
217	11	20.842940 	6.824766 	32.428983 
218	11	21.719041 	12.626428 	32.974157 
219	11	25.791329 	13.098544 	31.814101 
220	11	23.571013 	13.943908 	31.982672 
221	11	23.812111 	8.796647 	34.710703 
222	11	26.247618 	7.332979 	35.861209 
223	11	25.401025 	6.573162 	34.462947 
224	11	27.281935 	6.787044 	33.057023 
225	11	27.774988 	5.720750 	34.548975 
226	11	29.528077 	7.366461 	34.343539 
227	11	28.702733 	8.859404 	32.671361 
228	11	28.924868 	9.901811 	34.107203 
229	11	29.640127 	8.686551 	36.010364 
230	11	28.767034 	7.426015 	36.725172 
231	11	27.844498 	8.848396 	36.315867 
232	11	24.609722 	12.386188 	37.533525 
233	11	28.791788 	11.537194 	37.917390 
234	11	28.127519 	9.879480 	38.331245 
235	11	23.993184 	12.699254 	40.149959 
236	11	28.933878 	12.052008 	40.397810 
237	11	29.026102 	13.427023 	42.432436 
238	11	24.003594 	13.648218 	42.329079 
239	11	29.036420 	15.248515 	43.655118 
240	11	29.380582 	17.328875 	44.932785 
241	11	28.441372 	19.330494 	45.825150 
242	11	26.007292 	19.870025 	45.518152 
243	11	23.796567 	18.561041 	43.556555 
244	11	23.823812 	19.035036 	45.254523 
245	11	22.247586 	17.250295 	44.759243 
246	11	23.435888 	16.436134 	45.689519 
247	11	23.341620 	16.278883 	42.782163 
248	11	23.197693 	14.989233 	44.028154 
249	11	27.014053 	11.578262 	31.237338 
250	11	28.181472 	10.445721 	31.389552 
251	11	27.064911 	15.115151 	35.142273 
252	11	31.469893 	15.969581 	32.966940 
253	11	27.328177 	16.951075 	36.668021 
254	11	28.944646 	18.132869 	37.884691 
255	11	31.219744 	18.567601 	34.191764 
256	11	31.589516 	13.973753 	32.113862 
257	11	26.898782 	13.072412 	33.744438 
258	11	31.417368 	10.267790 	32.167284 
259	11	29.092985 	11.118600 	27.923438 
260	11	31.681386 	8.054588 	31.722942 
261	11	28.814701 	13.480070 	28.317211 
262	11	29.143677 	14.018303 	30.029065 
263	11	27.783825 	12.727844 	29.646908 
264	11	29.229422 	7.955848 	56.788417 
265	11	30.454707 	6.171220 	32.253275 
266	11	31.287334 	5.172251 	31.089852 
267	11	29.435310 	5.348177 	31.106011 
268	11	29.516411 	5.193017 	28.800673 
269	11	29.029640 	6.066250 	27.461466 
270	11	27.120455 	8.287818 	29.730919 
271	12	26.677618 	3.218155 	29.539133 
272	11	25.159265 	3.851420 	31.427040 
273	11	24.107788 	4.003233 	29.977467 
274	11	22.966184 	4.645168 	31.879627 
275	11	23.062416 	6.052401 	30.756592 
276	11	24.090019 	6.156371 	32.207469 
277	13	25.394706 	7.410080 	30.915470 
278	11	32.866795 	18.489360 	35.681323 
279	11	32.371398 	22.333937 	39.931299 
280	11	30.043420 	23.185914 	40.163810 
281	11	28.279167 	22.068043 	38.723408 
282	11	28.774905 	20.419843 	37.178809 
283	11	34.893227 	21.938271 	37.549593 
284	11	37.158173 	21.457278 	34.030596 
285	11	36.372396 	22.787158 	35.785411 
286	11	34.542545 	17.387567 	36.431137 
287	11	35.252325 	14.829876 	35.204040 
288	11	36.247241 	17.108030 	31.542244 
289	11	35.229807 	18.291491 	44.301091 
290	11	37.814910 	19.007782 	40.179064 
291	11	35.960738 	19.646031 	39.047181 
292	11	33.131899 	19.547557 	43.081604 
293	11	35.511382 	19.991104 	31.888435 
294	11	38.724499 	22.073130 	30.083602 
295	11	41.090588 	21.450161 	30.890742 
296	11	41.278424 	19.647608 	34.834753 
297	11	39.296738 	18.574873 	34.348093 
298	11	35.343151 	25.254781 	29.942037 
299	11	42.686216 	21.255963 	34.943142 
300	11	45.675299 	21.219889 	30.889891 
301	11	43.303336 	20.633646 	30.701875 
302	11	44.661042 	21.314872 	36.360583 
303	11	46.426809 	21.857617 	37.721537 
304	11	51.435096 	22.619048 	35.643865 
305	11	52.237245 	22.718167 	37.809074 
306	11	48.282825 	22.311259 	39.384851 
307	11	48.001409 	22.401265 	31.629978 
308	11	47.687388 	20.724777 	31.259201 
309	11	50.143685 	20.809110 	31.727954 
310	11	49.212697 	19.880243 	32.863581 
311	11	50.043635 	22.769274 	33.224125 
312	11	50.934652 	21.317901 	34.043039 
313	11	56.390188 	28.641690 	40.163179 
314	11	56.403919 	26.783138 	41.992513 
315	11	53.233570 	26.817492 	38.190114 
316	11	54.898769 	28.588513 	38.309292 
317	11	52.227975 	24.526607 	39.042459 
318	11	55.102300 	25.183795 	43.123155 
319	11	53.467469 	24.015098 	44.316699 
320	11	49.190860 	22.270540 	41.621375 
321	11	51.590576 	23.322014 	45.702660 
322	11	49.617226 	22.744956 	47.066609 
323	11	47.148960 	21.992579 	42.658084 
324	11	43.941510 	21.312340 	46.070952 
325	11	44.195246 	23.102297 	46.389991 
326	11	45.712936 	20.584212 	47.198217 
327	11	45.007271 	21.988900 	48.245200 
328	13	37.325918 	23.798845 	30.140966 
329	11	34.006380 	15.520837 	34.351986 
330	11	37.904223 	16.853269 	32.119548 
331	2	32.338526 	23.692818 	31.655394 
332	3	33.920552 	20.818845 	30.261808 
333	2	33.099463 	20.868669 	28.924957 
334	11	32.041462 	23.660475 	29.519475 
335	11	33.056619 	25.047043 	30.190683 
336	11	33.042042 	24.149672 	32.422125 
337	11	32.240804 	22.666388 	31.895000 
338	11	31.418338 	24.313361 	31.755443 
339	11	33.267251 	20.663417 	31.118087 
340	11	34.572733 	19.984805 	30.194323 
341	11	33.761882 	20.941512 	28.088060 
342	11	32.336866 	21.641341 	28.964213 
343	11	32.696331 	19.788748 	28.795005 
344	3	39.711819 	15.928673 	45.340338 
345	3	38.641891 	15.123910 	46.037440 
346	3	37.581538 	16.088011 	46.765812 
347	3	36.838157 	16.755138 	45.560690 
348	11	40.926613 	16.944594 	43.204191 
349	11	39.953716 	18.145632 	41.280737 
350	11	32.244254 	20.173536 	41.212814 
351	11	40.323210 	15.129171 	44.866020 
352	11	40.242565 	16.596133 	45.997225 
353	11	39.037091 	14.346581 	46.732541 
354	11	38.046430 	14.533794 	45.319066 
355	11	38.037542 	16.908452 	47.400814 
356	11	36.822993 	15.667068 	47.454924 
357	11	36.260608 	17.674339 	45.989026 
358	11	36.060905 	16.060969 	45.052466 
359	1	44.188380 	10.430715 	33.216342 
360	1	42.948115 	10.360313 	32.566238 
361	1	42.102412 	11.437451 	32.707796 
362	1	42.529380 	12.581447 	33.570772 
363	1	43.694321 	12.478204 	34.359086 
364	1	44.617883 	11.490212 	34.009468 
365	1	43.769121 	13.492667 	35.402629 
366	1	42.797719 	14.402198 	35.688977 
367	1	41.737393 	14.493508 	34.752515 
368	1	41.730268 	13.757762 	33.588921 
369	1	40.562353 	15.255100 	35.196102 
370	1	40.402939 	15.724444 	36.456135 
371	1	41.374150 	15.470403 	37.407097 
372	1	42.551578 	14.843394 	37.047837 
373	2	41.210041 	15.882544 	38.824324 
374	3	39.152605 	16.508750 	36.749153 
375	2	38.194544 	15.502189 	37.364299 
376	1	44.558977 	14.654220 	38.393753 
377	1	43.255638 	14.171563 	38.029188 
378	1	42.915211 	12.844267 	38.410519 
379	1	43.890363 	12.010735 	38.978442 
380	1	45.173811 	12.509282 	39.278990 
381	1	45.518727 	13.804516 	38.999264 
382	1	43.632223 	10.704389 	39.314462 
383	1	42.448606 	10.192915 	39.047858 
384	1	41.500929 	10.893599 	38.385739 
385	1	41.714360 	12.235006 	38.132040 
386	3	40.085012 	10.264018 	38.189721 
387	3	40.112658 	8.887413 	37.553580 
388	4	41.319726 	8.180754 	38.102028 
389	3	41.978462 	8.779276 	39.321010 
390	2	40.987873 	6.808177 	38.451833 
391	1	47.132585 	11.419710 	33.729896 
392	4	45.959014 	11.264995 	34.769638 
393	5	46.334961 	12.106108 	36.042149 
394	5	47.306691 	13.788457 	35.835989 
395	3	47.229082 	13.918665 	34.342405 
396	1	47.790153 	12.665143 	33.631740 
397	1	47.775129 	10.360335 	33.148898 
398	1	48.990630 	10.378303 	32.399527 
399	1	49.502441 	11.690362 	32.247731 
400	1	48.926811 	12.772581 	32.876288 
401	1	50.499568 	11.845711 	31.210569 
402	1	50.907521 	10.786447 	30.413706 
403	1	50.420103 	9.475908 	30.617687 
404	1	49.480396 	9.330863 	31.632375 
405	1	50.782011 	8.405172 	29.886178 
406	1	51.505648 	8.650837 	28.705382 
407	1	51.921001 	9.952706 	28.307610 
408	1	51.566528 	11.003896 	29.163516 
409	1	52.824255 	10.099986 	27.270421 
410	1	53.289041 	9.050905 	56.822389 
411	1	52.822740 	7.796095 	26.930545 
412	1	51.980824 	7.582409 	28.003511 
413	3	51.715952 	6.127718 	28.341867 
414	3	51.379649 	5.915676 	29.776336 
415	3	50.495670 	6.983411 	30.372170 
416	6	46.794231 	12.783385 	36.380497 
417	6	47.145242 	11.691241 	36.809636 
418	3	44.610086 	9.763703 	39.949561 
419	1	44.413963 	6.181124 	35.365930 
420	1	44.761614 	7.557783 	35.584662 
421	1	45.387358 	7.792381 	36.844959 
422	1	46.394292 	6.931815 	37.336208 
423	1	46.301859 	5.616055 	36.861888 
424	1	45.204637 	5.242198 	36.083971 
425	1	43.298807 	5.828416 	34.606501 
426	1	43.072646 	4.497622 	34.400746 
427	1	43.835506 	3.438541 	35.016474 
428	1	44.992460 	3.874571 	35.719736 
429	1	46.981315 	7.259255 	38.553131 
430	1	46.337372 	8.039866 	39.515333 
431	1	45.301197 	8.910755 	39.028644 
432	1	44.926206 	8.772538 	37.730316 
433	1	46.257732 	7.700255 	40.888243 
434	1	46.702028 	8.605656 	41.846191 
435	1	46.405745 	8.394243 	43.179868 
436	1	45.637360 	7.228113 	43.593631 
437	1	45.302908 	6.292723 	42.581033 
438	1	45.542340 	6.524776 	41.299008 
439	1	44.994074 	7.257480 	44.858654 
440	1	45.197355 	8.255141 	45.758833 
441	1	45.928653 	9.379534 	45.396727 
442	1	46.547318 	9.426099 	44.154409 
443	2	45.018776 	5.477896 	40.261638 
444	5	44.244870 	6.075851 	45.271650 
445	6	43.053927 	6.014690 	45.027390 
446	2	46.297781 	10.385101 	46.392040 
447	3	44.338418 	8.237209 	46.980266 
448	7	44.544193 	7.154170 	47.974450 
449	7	45.563182 	6.994443 	48.872412 
450	7	43.986335 	5.556370 	49.441973 
451	7	43.572407 	6.249889 	48.351915 
452	8	42.407691 	5.877011 	47.828447 
453	3	43.155104 	4.534283 	50.116435 
454	2	43.645703 	4.268990 	51.507093 
455	9	45.237796 	6.076226 	49.764213 
456	1	42.380421 	0.096429 	36.135507 
457	1	42.710819 	1.449902 	36.151447 
458	1	43.344650 	2.108866 	35.016886 
459	1	43.692840 	1.250106 	33.973294 
460	1	43.503957 	30.095691 	33.909705 
461	1	42.861097 	29.503545 	35.050919 
462	1	41.809986 	29.775879 	37.311008 
463	1	41.534096 	0.334806 	38.467593 
464	1	41.848911 	1.680887 	38.412624 
465	1	42.477874 	2.228937 	37.291560 
466	1	45.494773 	29.721606 	32.509426 
467	1	44.128615 	29.405647 	32.808933 
468	1	43.563216 	28.365928 	32.015890 
469	1	44.355072 	27.599548 	31.104970 
470	1	45.606773 	28.087083 	30.814252 
471	1	46.239486 	29.071424 	31.549160 
472	1	43.935446 	26.343239 	30.611156 
473	1	42.574098 	25.966409 	30.887367 
474	1	41.867412 	26.757108 	31.740773 
475	1	42.304879 	27.914145 	32.259737 
476	3	40.521070 	26.187548 	32.052629 
477	5	40.173168 	24.953927 	31.250596 
478	5	40.695810 	24.286086 	31.009363 
479	3	42.026813 	24.719094 	30.341288 
480	6	39.706857 	24.527891 	30.306376 
481	6	39.165860 	24.992195 	30.625477 
482	1	38.790846 	22.340396 	37.477313 
483	1	38.847778 	23.539271 	36.826748 
484	1	40.142039 	24.068792 	36.490766 
485	1	41.315248 	23.346770 	36.856862 
486	1	41.233562 	22.172231 	37.559914 
487	1	39.984154 	21.629648 	37.842072 
488	1	42.490439 	23.896702 	36.346594 
489	1	42.581903 	25.277736 	35.828599 
490	1	41.410706 	26.100689 	35.655226 
491	1	40.250627 	25.439408 	36.069959 
492	1	41.474720 	27.473125 	35.328079 
493	1	42.755424 	28.111548 	35.204100 
494	1	43.920897 	27.254543 	35.198376 
495	1	43.808057 	25.932112 	35.533949 
496	1	46.288090 	25.122356 	27.876343 
497	1	45.113139 	25.586010 	28.556020 
498	1	44.827635 	25.458423 	29.962421 
499	1	45.840841 	24.721320 	30.719923 
500	1	47.173593 	24.773168 	30.212520 
501	1	47.319547 	24.718466 	28.784102 
502	1	48.240308 	25.083459 	31.114034 
503	1	47.963880 	25.183151 	32.530236 
504	1	46.642245 	24.916550 	32.948606 
505	1	45.687015 	24.578945 	32.050491 
506	7	47.603719 	25.881259 	54.933888 
507	7	46.470580 	25.465271 	56.786561 
508	7	45.523532 	25.623761 	55.769142 
509	7	46.299182 	25.763037 	54.568473 
510	3	45.851557 	25.783025 	53.174086 
511	1	48.697018 	25.831641 	33.555967 
512	1	48.688967 	25.425790 	34.893998 
513	1	48.179324 	26.166204 	36.007034 
514	1	47.908858 	27.553890 	35.765479 
515	1	48.351623 	28.060248 	34.501023 
516	1	48.727442 	27.254105 	33.396068 
517	1	47.177695 	28.291692 	36.667835 
518	1	46.510101 	27.626522 	37.653806 
519	1	46.515530 	26.183772 	37.655091 
520	1	47.441434 	25.493396 	36.934221 
521	1	45.476884 	25.477613 	38.257176 
522	1	44.403292 	26.177915 	38.888263 
523	1	44.463216 	27.594239 	38.968271 
524	1	45.539045 	28.325914 	38.383143 
525	1	43.321354 	28.280262 	39.515635 
526	1	42.176682 	27.606737 	39.911754 
527	1	42.070217 	26.219929 	39.726462 
528	1	43.182973 	25.537873 	39.301225 
529	3	46.868417 	29.700603 	36.423611 
530	3	46.770273 	0.122937 	37.755149 
531	3	45.514011 	29.793018 	38.434238 
532	1	34.910572 	25.268459 	36.953106 
533	1	35.031663 	24.534265 	38.114969 
534	1	36.029154 	24.835676 	39.045950 
535	1	36.976262 	25.879956 	38.643665 
536	1	36.882363 	26.428413 	37.333724 
537	1	35.836906 	26.159669 	36.467341 
538	1	38.181471 	25.946100 	39.333790 
539	1	38.550763 	24.880210 	40.133178 
540	1	37.641016 	23.924356 	40.618302 
541	1	36.296928 	23.979255 	40.120326 
542	1	37.975011 	22.986071 	41.575906 
543	1	39.287072 	23.026630 	42.095252 
544	1	40.234814 	23.802089 	41.416272 
545	1	39.946627 	24.737444 	40.459677 
546	1	41.521524 	23.311480 	41.496817 
547	1	41.877160 	22.144321 	42.139268 
548	1	40.937894 	21.478189 	42.925234 
549	1	39.656979 	21.995758 	42.969858 
550	1	41.260415 	20.281679 	43.533827 
551	1	42.529350 	19.773003 	43.263231 
552	1	43.421633 	20.328817 	42.434440 
553	1	43.122759 	21.607487 	41.897375 
554	5	44.719563 	19.757704 	42.021099 
555	3	45.146379 	18.663057 	42.883712 
556	3	43.990531 	17.641888 	43.262541 
557	5	42.896052 	18.442111 	43.947721 
558	6	45.311791 	20.144582 	40.986100 
559	6	42.362765 	18.009079 	44.968826 
560	10	40.881223 	25.600456 	39.963388 
561	9	47.673370 	25.591346 	56.288333 
562	11	44.905016 	9.503434 	33.176620 
563	11	42.699330 	9.658804 	31.731330 
564	11	41.197365 	11.602853 	32.061797 
565	11	44.534646 	13.355194 	36.091787 
566	11	40.826765 	13.824834 	32.898818 
567	11	39.724461 	15.354660 	34.534071 
568	11	40.542988 	16.760094 	38.997206 
569	11	42.102490 	16.057460 	39.412864 
570	11	40.682115 	15.063294 	39.372716 
571	11	38.658347 	16.858555 	35.819798 
572	11	39.268194 	17.326201 	37.448988 
573	11	37.143256 	15.963075 	37.607679 
574	11	38.610734 	15.016506 	38.289497 
575	11	37.969658 	14.639799 	36.660370 
576	11	44.934189 	15.665861 	38.169534 
577	11	46.002824 	11.952233 	39.698618 
578	11	46.562372 	14.078144 	39.416818 
579	11	41.076454 	12.884327 	37.563411 
580	11	39.626848 	10.341308 	39.199537 
581	11	39.474444 	11.020928 	37.636994 
582	11	40.059650 	8.921513 	36.464252 
583	11	39.159081 	8.492513 	37.885422 
584	11	42.106511 	8.173156 	37.288521 
585	11	42.743678 	8.108361 	39.718067 
586	11	41.203970 	8.656880 	40.097349 
587	11	40.298560 	6.625166 	39.334439 
588	11	41.917787 	6.214982 	38.621070 
589	11	40.593950 	6.298959 	37.599713 
590	11	46.024017 	10.308564 	35.339585 
591	11	47.665218 	14.935111 	33.957535 
592	11	46.190620 	13.954940 	34.161910 
593	11	47.219431 	9.450958 	33.395511 
594	11	49.373863 	13.748630 	32.769761 
595	11	50.738456 	12.912516 	31.091006 
596	11	48.969188 	8.397887 	31.784972 
597	11	51.925831 	12.042679 	28.923859 
598	11	53.172127 	11.129282 	26.956017 
599	11	54.026063 	9.169618 	56.011628 
600	11	53.154446 	6.953775 	56.602844 
601	11	52.637172 	5.626568 	28.030967 
602	11	50.862418 	5.811371 	27.667019 
603	11	52.392534 	6.061258 	30.286611 
604	11	51.079586 	4.967374 	30.065180 
605	11	50.687100 	7.018370 	31.542462 
606	11	49.432488 	6.800115 	30.166640 
607	11	44.186587 	9.240330 	40.875424 
608	11	45.318541 	10.364881 	40.501686 
609	11	44.153199 	8.258675 	34.984773 
610	11	46.904665 	4.859638 	37.413654 
611	11	42.621195 	6.507807 	34.129116 
612	11	42.144164 	4.334321 	33.865589 
613	11	45.691470 	3.152262 	36.169724 
614	11	47.676473 	6.509232 	38.927765 
615	11	44.138023 	9.440458 	37.285864 
616	11	47.184337 	9.516966 	41.610563 
617	11	44.639105 	5.491367 	42.983708 
618	11	47.086135 	10.364265 	43.985295 
619	11	44.432627 	5.853339 	39.408763 
620	11	44.353864 	4.785074 	40.807946 
621	11	45.803175 	4.801716 	39.838519 
622	11	44.776178 	5.168076 	45.579039 
623	11	46.946517 	9.982943 	47.171612 
624	11	45.289267 	10.739116 	46.846404 
625	11	46.697077 	11.351715 	46.045191 
626	11	43.303512 	8.175482 	46.615225 
627	11	44.374910 	9.218023 	47.410935 
628	11	46.533723 	7.443330 	49.089126 
629	12	42.564157 	5.780795 	46.862971 
630	11	43.162761 	3.562439 	49.689754 
631	11	42.072354 	4.788137 	50.025620 
632	11	43.991436 	5.168515 	52.004590 
633	11	44.547257 	3.536737 	51.580194 
634	11	42.802414 	3.838574 	52.078600 
635	13	45.817995 	5.490825 	50.350165 
636	11	44.205246 	1.770418 	33.049842 
637	11	41.651857 	28.680461 	37.377282 
638	11	41.196009 	30.136862 	39.380728 
639	11	41.518257 	2.371119 	39.158981 
640	11	42.671396 	3.319747 	37.366570 
641	11	45.868046 	0.297214 	33.141074 
642	11	46.292561 	27.698376 	30.095219 
643	11	47.318092 	29.230990 	31.376574 
644	11	41.620904 	28.621630 	32.800934 
645	11	40.369085 	25.925344 	33.067875 
646	11	41.694368 	24.817379 	29.302468 
647	11	43.477204 	23.391022 	36.507516 
648	11	39.246768 	25.925274 	35.986052 
649	11	40.483568 	28.031832 	35.188681 
650	11	44.685146 	25.405377 	35.614038 
651	11	44.454000 	26.323515 	28.065719 
652	11	48.275072 	24.587367 	28.349168 
653	11	49.204717 	25.314920 	30.576236 
654	11	46.346060 	25.113374 	33.989651 
655	11	44.693658 	24.551283 	32.478523 
656	11	48.506970 	25.980526 	54.305228 
657	11	48.580467 	24.369266 	35.057233 
658	11	48.148387 	29.127780 	34.277753 
659	11	48.710586 	27.750617 	32.443714 
660	11	47.505691 	24.409007 	37.001440 
661	11	45.425661 	24.381347 	38.254110 
662	11	43.446397 	29.302193 	39.766968 
663	11	41.279166 	28.177611 	40.265772 
664	11	43.046234 	24.427086 	39.034132 
665	11	45.875619 	29.776849 	35.845214 
666	11	47.670956 	30.181116 	35.864159 
667	11	46.671774 	1.208593 	37.597854 
668	11	47.636451 	0.012249 	38.452002 
669	11	44.622976 	0.050802 	38.018995 
670	11	45.568136 	30.163021 	39.516937 
671	11	34.108742 	25.119202 	36.267970 
672	11	34.205086 	23.824403 	38.305949 
673	11	37.678414 	27.064627 	36.930878 
674	11	35.864984 	26.687186 	35.450849 
675	11	39.003850 	26.666231 	39.101171 
676	11	35.611836 	23.249695 	40.576219 
677	11	37.166331 	22.323418 	41.942713 
678	11	42.315701 	23.823198 	40.925502 
679	11	38.918816 	21.271643 	43.394205 
680	11	40.717721 	19.817599 	44.360181 
681	11	43.754325 	22.162074 	41.229291 
682	11	45.518787 	19.139427 	43.820744 
683	11	45.943066 	18.099159 	42.479099 
684	11	44.258720 	17.021522 	44.104961 
685	11	43.602338 	17.125686 	42.375451 
686	13	48.481582 	25.298762 	56.767766 
687	11	39.682139 	26.854230 	31.798149 
688	11	42.691299 	23.839324 	30.282984 
689	2	46.103048 	27.206616 	52.707381 
690	3	44.070778 	25.660878 	55.800585 
691	2	43.420694 	24.348282 	56.202185 
692	11	44.840116 	25.490345 	52.967420 
693	11	46.546660 	24.983548 	52.685595 
694	11	47.119649 	27.576701 	52.909984 
695	11	45.325205 	27.727303 	53.326695 
696	11	45.842129 	27.265647 	51.676825 
697	11	43.688434 	25.994551 	54.804553 
698	11	43.703827 	26.436239 	56.471639 
699	11	43.904113 	23.568503 	55.690272 
700	11	42.320043 	24.355988 	56.044997 
701	11	43.427733 	24.285131 	27.060027 
702	3	39.722068 	20.327175 	38.599435 
703	3	40.991210 	19.514600 	38.701516 
704	3	42.026387 	20.493704 	39.182711 
705	3	42.453460 	21.399594 	38.091871 
706	11	37.778947 	21.906632 	37.658286 
707	11	37.989901 	24.145025 	36.511683 
708	11	44.891184 	27.803926 	35.023112 
709	11	39.479289 	20.636929 	39.628994 
710	11	38.837903 	19.761671 	38.252336 
711	11	41.149836 	19.009570 	37.744794 
712	11	40.794069 	18.910351 	39.548330 
713	11	42.773829 	19.861513 	39.695540 
714	11	41.536373 	21.057304 	39.952945 
715	11	42.966808 	20.806982 	37.325102 
716	11	43.036687 	22.193574 	38.562200 
717	1	2.885833 	6.448439 	51.817903 
718	1	1.498971 	6.681918 	51.772897 
719	1	1.025517 	7.999859 	51.681041 
720	1	1.932870 	9.056828 	51.484276 
721	1	3.338882 	8.783236 	51.491302 
722	1	3.840226 	7.466730 	51.743931 
723	1	4.217567 	9.859405 	51.240159 
724	1	3.761610 	11.127679 	51.490215 
725	1	2.352524 	11.428030 	51.452425 