LAMMPS (16 Mar 2018)
echo              both
units             real
dimension          3
atom_style        full
boundary          p p p
#pair_style        lj/class2/coul/long  12.5
pair_style          lj/class2/coul/cut 12.5
pair_modify       shift yes mix arithmetic
#kspace_style      pppm 0.0001
bond_style        class2
angle_style       class2
dihedral_style    class2
improper_style    class2

read_data          C199H148N2O9_46.data
  orthogonal box = (-110 -10 -35) to (790 125 100)
  10 by 2 by 2 MPI processor grid
  reading atoms ...
  16468 atoms
  scanning bonds ...
  4 = max bonds/atom
  scanning angles ...
  6 = max angles/atom
  scanning dihedrals ...
  13 = max dihedrals/atom
  scanning impropers ...
  4 = max impropers/atom
  reading bonds ...
  18308 bonds
  reading angles ...
  32522 angles
  reading dihedrals ...
  50876 dihedrals
  reading impropers ...
  13938 impropers
  4 = max # of 1-2 neighbors
  9 = max # of 1-3 neighbors
  20 = max # of 1-4 neighbors
  21 = max # of special neighbors

neighbor          2 bin
#neigh_modify      every 1 delay 0 check yes page 1000000 one 20000
neigh_modify      every 1 delay 0 check yes

thermo            1000
thermo_style      custom step temp press pe ke density

#variable          zl equal "zlo + 0.01*lz"
#variable          zh equal "zhi - 0.01*lz"


#fix               20 all indent 10000.0 plane z v_zh hi units box
#fix               21 all indent 10000.0 plane z v_zl lo units box

fix               1 all nvt temp 1000 1000 100
run               100000
Neighbor list info ...
  update every 1 steps, delay 0 steps, check yes
  max neighbors/atom: 2000, page size: 100000
  master list distance cutoff = 14.5
  ghost atom cutoff = 14.5
  binsize = 7.25, bins = 125 19 19
  1 neighbor lists, perpetual/occasional/extra = 1 0 0
  (1) pair lj/class2/coul/cut, perpetual
      attributes: half, newton on
      pair build: half/bin/newton
      stencil: half/bin/3d/newton
      bin: standard
Per MPI rank memory allocation (min/avg/max) = 0.9801 | 13.18 | 15.38 Mbytes
Step Temp Press PotEng KinEng Density 
       0            0   -227.65462    135237.47            0  0.012626747 
    1000    205.95234   -28.268103    139061.82    10109.171  0.012626747 
    2000    1100.1758   -94.431626    164338.81    54002.127  0.012626747 
    3000    1026.4763     15.48689    173747.91    50384.587  0.012626747 
    4000    1016.3764   -7.6519366    175291.27    49888.832  0.012626747 
    5000    987.38356   -4.6202654    175671.46    48465.721  0.012626747 
    6000    994.55849   -22.774644     177272.8    48817.903  0.012626747 
    7000    1007.9494   -17.184213    177640.09    49475.196  0.012626747 
    8000    993.76812   -22.262379    177581.87    48779.107  0.012626747 
    9000    1013.2921   -3.2611333    178589.18    49737.444  0.012626747 
   10000     993.0108   -12.401191    178409.08    48741.934  0.012626747 
   11000    1000.4377    12.694953    178537.69    49106.486  0.012626747 
   12000    1013.5322   -10.818873    178872.75    49749.225  0.012626747 
   13000    998.58275     9.620908    178586.95    49015.434  0.012626747 
   14000     1003.271   -8.7639539    178886.89    49245.554  0.012626747 
   15000      999.244    7.0929028    179161.61    49047.891  0.012626747 
   16000    993.02823    18.812011    178941.21     48742.79  0.012626747 
   17000    1003.7489    19.348652    179057.43    49269.014  0.012626747 
   18000    993.38036    2.3499694    178998.23    48760.074  0.012626747 
   19000    1001.5572    24.860481    178933.03    49161.433  0.012626747 
   20000    1007.7941   -4.5964931    178901.51    49467.573  0.012626747 
   21000    994.57935   -5.3845715    178961.61    48818.926  0.012626747 
   22000    1011.6035    2.7941172     179205.6    49654.557  0.012626747 
   23000    998.98166    5.8899472    177952.73    49035.014  0.012626747 
   24000    1011.4798    12.938909    178735.15    49648.487  0.012626747 
   25000    996.17509     6.397051    179415.83    48897.253  0.012626747 
   26000     992.2103    19.707305    178475.78    48702.642  0.012626747 
   27000     1006.026  -0.77353178    179195.61    49380.784  0.012626747 
   28000    1003.2917    10.334329    178909.97    49246.573  0.012626747 
   29000     1002.406   -4.5850975    178634.68      49203.1  0.012626747 
   30000    1001.4595   -11.259099    179306.69    49156.641  0.012626747 
   31000    1004.8286    -11.58791     178312.2    49322.009  0.012626747 
   32000    1000.9984   -21.900738    178460.48    49134.005  0.012626747 
   33000    1005.2281   -18.819604     179080.8     49341.62  0.012626747 
   34000    1000.8119   -3.5095044    178702.28    49124.853  0.012626747 
   35000    1002.5071     -13.3887    179245.68    49208.062  0.012626747 
   36000    995.33455   -10.058313    179198.03    48855.995  0.012626747 
   37000    997.62478   -10.475416    178813.25    48968.412  0.012626747 
   38000    1001.8365   -26.494443     179164.7    49175.146  0.012626747 
   39000    1005.1446    0.9346825    179025.36    49337.521  0.012626747 
   40000    1003.3135 -0.085143344    178247.44    49247.642  0.012626747 
   41000    1001.8692   -2.6574424    179197.81     49176.75  0.012626747 
   42000    993.99216    -6.845038    179009.92    48790.104  0.012626747 
   43000    994.54196    8.2392757     178912.8    48817.091  0.012626747 
   44000    994.19959   -6.5726578    179384.44    48800.286  0.012626747 
   45000    996.62532   -6.1471734    178735.76    48919.353  0.012626747 
   46000    1008.5565    1.9341324    178719.38    49504.997  0.012626747 
   47000    990.33269   -23.633907    178581.35    48610.479  0.012626747 
   48000    1000.1293    4.3561691     178640.9    49091.345  0.012626747 
   49000    998.02851  -0.31027165    178912.62    48988.228  0.012626747 
   50000     994.6359   -11.553398    179256.15    48821.702  0.012626747 
   51000    990.65167   -2.2681817    178754.33    48626.136  0.012626747 
   52000    1004.2575   0.16984842    179384.67    49293.979  0.012626747 
   53000    1001.4411    24.100446    178723.33    49155.736  0.012626747 
   54000    1004.1828    11.010982    178274.74    49290.313  0.012626747 
   55000    993.32651    9.2410013       179407    48757.431  0.012626747 
   56000    1002.3975   -12.382193    179610.87    49202.678  0.012626747 
   57000    989.50918     5.318742    178863.97    48570.057  0.012626747 
   58000    998.74959   -18.333948    179224.62    49023.623  0.012626747 
   59000    1003.9006    -8.108465     178814.1     49276.46  0.012626747 
   60000    998.34845  -0.66069921    178602.17    49003.933  0.012626747 
   61000      1010.64   -17.432225    178539.66    49607.261  0.012626747 
   62000    998.45721   -23.634277    178932.35    49009.271  0.012626747 
   63000    999.57145   -8.8202332    179195.49    49063.964  0.012626747 
   64000    992.81498   -2.2786141    178460.66    48732.322  0.012626747 
   65000    996.01664   -8.0132281    179378.35    48889.476  0.012626747 
   66000    1003.8108    -20.45376    178980.29    49272.051  0.012626747 
   67000    990.41868   -26.970008    178684.43      48614.7  0.012626747 
   68000    1001.8671    -10.63664    178723.74    49176.647  0.012626747 
   69000    1000.3396   -12.550061    178706.26     49101.67  0.012626747 
   70000    1000.1489    2.6889357    179171.19    49092.306  0.012626747 
   71000    987.03766     -5.80671    178870.29    48448.743  0.012626747 
   72000    992.75021   -21.936537    178912.44    48729.143  0.012626747 
   73000    1007.0121    11.570665    178833.75    49429.189  0.012626747 
   74000    1002.4349   -17.642446    178631.44    49204.514  0.012626747 
   75000    1014.2837    5.0767898     178997.9    49786.113  0.012626747 
   76000    999.98735   -19.135932    178514.01    49084.378  0.012626747 
   77000    1007.0551   -5.5039289    178956.78    49431.301  0.012626747 
   78000    1001.9401   -5.5401631     179683.3    49180.231  0.012626747 
   79000    1004.5384    2.0598646    178458.04    49307.764  0.012626747 
   80000    1006.5383   -6.3423849    179150.55    49405.931  0.012626747 
   81000    991.44561    14.702948    179182.61    48665.107  0.012626747 
   82000     995.7946    4.6297109    178865.33    48878.577  0.012626747 
   83000    1005.5486   -15.616033    179185.56     49357.35  0.012626747 
   84000    1007.0454    6.7834093    178675.08    49430.824  0.012626747 
   85000    1001.4114    1.4564208    178975.72    49154.277  0.012626747 
   86000    979.34947   -5.7308474    178832.46    48071.368  0.012626747 
   87000    1000.6636   -9.6928661    178743.96     49117.57  0.012626747 
   88000    1004.0706    11.150014    179107.52    49284.804  0.012626747 
   89000    994.80474    -13.00474    178866.57     48829.99  0.012626747 
   90000    988.51588    4.2482352    178554.39    48521.301  0.012626747 
   91000    998.73447   -11.522299    179250.52     49022.88  0.012626747 
   92000    996.22257   -10.267987    178815.91    48899.584  0.012626747 
   93000    1000.3389   -22.178972    178614.07    49101.633  0.012626747 
   94000    992.74395   0.45829021    179198.79    48728.836  0.012626747 
   95000     1018.188   -10.341348    179022.93    49977.759  0.012626747 
   96000    1001.9369    10.485858    178954.59    49180.073  0.012626747 
   97000    994.85845   -24.244407    179388.68    48832.626  0.012626747 
   98000      1003.73    12.527667    179430.37    49268.088  0.012626747 
   99000    1000.9333    4.6393476    178536.24    49130.812  0.012626747 
  100000    995.77533    4.1986853    178621.26    48877.631  0.012626747 
Loop time of 548.523 on 40 procs for 100000 steps with 16468 atoms

Performance: 15.751 ns/day, 1.524 hours/ns, 182.308 timesteps/s
98.6% CPU use with 40 MPI tasks x no OpenMP threads

MPI task timing breakdown:
Section |  min time  |  avg time  |  max time  |%varavg| %total
---------------------------------------------------------------
Pair    | 42.335     | 116.61     | 200.85     | 346.0 | 21.26
Bond    | 67.202     | 169.81     | 281.26     | 398.7 | 30.96
Neigh   | 34.336     | 34.61      | 35.112     |   3.5 |  6.31
Comm    | 6.35       | 72.646     | 285.46     | 831.9 | 13.24
Output  | 0.012276   | 0.013449   | 0.034879   |   3.0 |  0.00
Modify  | 11.846     | 150.67     | 350.43     | 739.8 | 27.47
Other   |            | 4.166      |            |       |  0.76

Nlocal:    411.7 ave 712 max 141 min
Histogram: 3 1 0 15 5 6 6 2 1 1
Nghost:    188.4 ave 356 max 0 min
Histogram: 6 4 0 2 0 5 10 9 2 2
Neighs:    40099.9 ave 65899 max 11752 min
Histogram: 3 1 0 6 10 8 4 2 3 3

Total # of neighbors = 1603997
Ave neighs/atom = 97.4008
Ave special neighs/atom = 11.6425
Neighbor list builds = 10167
Dangerous builds = 0
unfix             1
write_data         C199H148N2O9_46nvt.data

fix               2 all npt temp 900 900 100 iso 100 100 1000
run               100000
Per MPI rank memory allocation (min/avg/max) = 0.9801 | 13.25 | 15.4 Mbytes
Step Temp Press PotEng KinEng Density 
  100000    995.77533    4.1986853    178621.26    48877.631  0.012626747 
  101000    906.04427    7.8680998    174088.73    44473.182  0.014616559 
  102000    898.16299  -0.08183815    173691.69     44086.33  0.016460716 
  103000    897.76057    26.470206    173689.23    44066.577  0.018330064 
  104000    908.14704   -35.818744    173566.22    44576.397  0.020227026 
  105000     902.1227   -32.602061    173309.92    44280.692  0.022148231 
  106000    901.48681   -10.349018     173743.6    44249.479  0.024144917 
  107000    904.84691   -23.138848    173675.27     44414.41  0.026198507 
  108000    893.99336   -3.8562004    173483.12    43881.663  0.028310423 
  109000    898.80572   -49.553863    174094.69    44117.878  0.030475299 
  110000    888.18621   -57.738654     174260.4    43596.619  0.032684645 
  111000    885.96272    3.5762113    173587.99    43487.479  0.034981747 
  112000    899.13985    45.784879    173443.72    44134.279  0.037307272 
  113000    907.33875   -12.043015     173633.3    44536.722  0.039720861 
  114000    900.89011   -10.322065    173703.62     44220.19  0.042171459 
  115000    902.86614     20.01238    173692.21    44317.184  0.044727976 
  116000    897.82156    5.7924001    173601.19    44069.571   0.04730455 
  117000    892.61427   -66.519544    174194.74    43813.971  0.049994998 
  118000    904.38444   -115.24406    172980.82     44391.71  0.052698818 
  119000    908.36308   -33.368534    174194.35    44587.001  0.055505479 
  120000    893.51863   -48.394266    173571.19    43858.361  0.058406265 
  121000    907.08614   -23.783458    173748.85    44524.323  0.061295499 
  122000    886.95054   -129.66647    174014.69    43535.967   0.06423615 
  123000     897.2342    71.118698     174270.6     44040.74  0.067341583 
  124000    904.35975    44.495361     173453.1    44390.497  0.070446609 
  125000    894.76899   -48.612829    173172.57    43919.735  0.073713959 
  126000    898.43059    41.368666    173602.43    44099.465  0.076957223 
  127000    910.61479   -22.345279    173212.84    44697.526  0.080350229 
  128000    907.58051   -31.640736    172964.48    44548.589  0.083702739 
  129000    903.49122   -44.358327    173511.22    44347.866   0.08713577 
  130000    909.58154     92.67121     173996.7    44646.809  0.090732356 
  131000    909.29045   -128.38118    172950.31    44632.521  0.094387059 
  132000    895.54421    -38.81487    173684.96    43957.787  0.098181806 
  133000    895.09993    25.771905    173492.03    43935.979    0.1018583 
  134000    893.57428   -66.950045    173702.43    43861.093   0.10577242 
  135000     901.1338    63.928837    173505.22    44232.152   0.10972247 
  136000    884.48617   -10.687604    173660.59    43415.003   0.11368363 
  137000    900.25938    227.28958    173674.47    44189.231   0.11779439 
  138000    898.92218   -55.996388     173214.4    44123.595   0.12210744 
  139000    900.58882    49.677711    172892.55    44205.401   0.12642089 
  140000    899.47937   -104.01925    173274.41    44150.944   0.13067262 
  141000    898.46504    -98.41657    172798.92    44101.155   0.13507378 
  142000    891.77065   -278.19886    173049.64    43772.561   0.13960052 
  143000    899.90302    32.538955    173345.62    44171.739   0.14425688 
  144000    897.34795   -117.26378    172937.04    44046.323   0.14904453 
  145000    905.23918    121.55661     173090.6    44433.664   0.15394544 
  146000     900.4764    67.443376    173185.01    44199.883   0.15872905 
  147000    898.43031   -17.505319    173475.89    44099.451   0.16360611 
  148000    894.88145   -124.21232    172959.43    43925.255   0.16896622 
  149000    892.01114   -42.716044    172691.72    43784.366    0.1741343 
  150000    898.13447   -189.89115    172875.12     44084.93   0.17932856 
  151000    891.45093   -269.31256    172527.07    43756.868   0.18478604 
  152000    896.84809   -168.39595    172882.53    44021.788   0.19005236 
  153000    900.11099    234.82441    172276.52    44181.947   0.19559496 
  154000    907.61049    -51.15866    172491.43     44550.06   0.20137251 
  155000    900.61884     104.0706    172471.96    44206.875   0.20708117 
  156000    901.59748   -73.370966     172033.1    44254.911   0.21322027 
  157000    896.24035   -226.98724    172560.26    43991.957   0.21888539 
  158000    901.61033   -183.41799     172585.2    44255.542   0.22518537 
  159000    896.01106    94.605003    171992.09    43980.702   0.23154245 
  160000    903.29864    29.703838    172155.13    44338.413    0.2376518 
  161000     907.5797    221.83597    171892.76    44548.549   0.24416755 
  162000    889.09004   -151.20555    172409.98    43640.984   0.25060233 
  163000    899.54418   -66.289168    172248.55    44154.125   0.25742834 
  164000     901.5652   -207.74581    171990.65    44253.327   0.26460419 
  165000    888.13425   -476.98702    171790.68    43594.069   0.27126271 
  166000    915.64451    93.659261    172209.22     44944.41   0.27851191 
  167000    897.92951   -17.525507    172006.18    44074.869   0.28577176 
  168000    894.78947    -167.9198    171314.68     43920.74   0.29337754 
  169000    902.03048   -362.15663    171534.16    44276.165   0.30093582 
  170000    898.70809    101.72464    171494.12    44113.086   0.30871452 
  171000    902.72327   -79.967666    171855.69    44310.171   0.31661004 
  172000    905.36717   -6.6057493    171676.51    44439.947   0.32546977 
  173000    892.65057   -456.43029    171272.36    43815.752   0.33330952 
  174000    897.40031    25.164436     171324.8    44048.893   0.34178138 
  175000    900.74259   -227.88765    171620.79    44212.949     0.349991 
  176000    908.61088   -419.05371    171475.01    44599.164   0.35852756 
  177000    906.07216    101.89994    170510.24    44474.551   0.36745919 
  178000    899.94567    29.239595    171365.22    44173.832   0.37648035 
  179000    902.46802   -626.23166    171209.47    44297.642   0.38645853 
  180000    901.87076    70.859135    170838.16    44268.325   0.39613756 
  181000    898.40004   -227.39612    169892.57    44097.965   0.40461974 
  182000    897.16337    252.79938    170593.81    44037.263   0.41406879 
  183000    907.18108    328.14001    170979.96    44528.983   0.42407094 
  184000    898.23961   -761.71945    170446.41    44090.091   0.43514166 
  185000    905.00862   -704.74194    171033.64    44422.348   0.44548426 
  186000    901.58595    256.96802    170219.98    44254.346   0.45576922 
  187000    904.45458     452.3099    170231.84    44395.152    0.4662006 
  188000    903.64809    -1368.196    170999.08    44355.566   0.47644903 
  189000    909.54393   -194.33919    170223.39    44644.963   0.48695483 
  190000    894.55283    215.83915    170963.57    43909.125   0.49958022 
  191000    899.49637   -483.66444    169677.56    44151.778    0.5093717 
  192000    899.55372   -166.73049    170617.12    44154.593   0.51742971 
  193000    901.23466   -1011.0866    170123.94    44237.103   0.52916845 
  194000     904.2954   -407.64445    170515.36    44387.339    0.5414568 
  195000    905.11143    468.66402    170241.07    44427.394   0.55274247 
  196000     891.2704    123.70695     170636.9    43748.007   0.56527271 
  197000    896.55372    -323.8585    170067.12    44007.338   0.57546872 
  198000    900.57582   -343.86036    170070.45    44204.763   0.58775843 
  199000    901.77475   -1110.8591    170106.71    44263.613   0.59934828 
  200000    901.56491   -555.50666    169873.27    44253.313    0.6100871 
Loop time of 870.772 on 40 procs for 100000 steps with 16468 atoms

Performance: 9.922 ns/day, 2.419 hours/ns, 114.841 timesteps/s
98.5% CPU use with 40 MPI tasks x no OpenMP threads

MPI task timing breakdown:
Section |  min time  |  avg time  |  max time  |%varavg| %total
---------------------------------------------------------------
Pair    | 43.099     | 221.71     | 366.85     | 572.5 | 25.46
Bond    | 51.747     | 176.29     | 239.36     | 362.3 | 20.25
Neigh   | 77.11      | 78.47      | 80.676     |   9.3 |  9.01
Comm    | 103.19     | 291.47     | 626.46     | 785.5 | 33.47
Output  | 0.010717   | 0.01167    | 0.032094   |   3.0 |  0.00
Modify  | 26.906     | 96.614     | 176.25     | 433.6 | 11.10
Other   |            | 6.202      |            |       |  0.71

Nlocal:    411.7 ave 636 max 30 min
Histogram: 3 0 2 1 5 6 5 6 5 7
Nghost:    5411.93 ave 6949 max 3137 min
Histogram: 2 0 3 3 5 6 3 8 6 4
Neighs:    146528 ave 276497 max 3829 min
Histogram: 3 2 4 4 6 4 6 2 5 4

Total # of neighbors = 5861139
Ave neighs/atom = 355.911
Ave special neighs/atom = 11.6425
Neighbor list builds = 10024
Dangerous builds = 0
unfix             2

fix               3 all npt temp 700 700 100 iso 100 100 1000
run               100000
Per MPI rank memory allocation (min/avg/max) = 14.56 | 15.92 | 16.94 Mbytes
Step Temp Press PotEng KinEng Density 
  200000    901.56491   -555.50666    169873.27    44253.313    0.6100871 
  201000    705.82263    195.19384    160198.66    34645.303   0.63359639 
  202000    694.87003    845.14738    159480.41    34107.695   0.66049393 
  203000    702.68756    759.59944    159725.96    34491.418   0.67650006 
  204000     697.5498    121.99565    159107.59    34239.231   0.69840338 
  205000    704.96677    394.26277    158946.13    34603.293   0.71991984 
  206000    696.91659   -273.03841    159622.07     34208.15    0.7316171 
  207000    702.32995   -576.50908    158348.61    34473.865   0.74694899 
  208000    699.34954   -54.102019    158139.16    34327.572   0.76337818 
  209000    696.24124    356.48099    158872.71    34175.001    0.7752152 
  210000    695.77972    365.90191    158822.57    34152.347   0.78473487 
  211000    695.66044    547.51519    158231.67    34146.492   0.79935777 
  212000    698.58557    533.80896    158659.99    34290.072   0.80542223 
  213000    696.66888   -841.58275    159276.35    34195.991   0.81817456 
  214000     701.0547    1299.4449    158420.32    34411.269   0.82984095 
  215000    704.64094    375.94052     158148.6      34587.3   0.82771547 
  216000    702.05729    1909.7185    158401.49    34460.482   0.84257052 
  217000    696.07464    293.05703    158452.18    34166.823   0.84523571 
  218000    695.90843   -246.22967    158459.22    34158.665   0.85303022 
  219000     695.2994    1060.0031    158716.06    34128.771    0.8617795 
  220000    707.57086    1257.4424    158174.79    34731.115   0.87123505 
  221000     701.7035   -714.00142    158511.66    34443.115   0.88309241 
  222000    692.99673    708.41524    157925.97    34015.744   0.89107533 
  223000    700.78503    1156.8606    158260.43    34398.033   0.90026513 
  224000    704.86743     202.5801    158401.98    34598.417    0.9144591 
  225000    696.63248   -223.67333    158019.96    34194.205   0.91989224 
  226000     708.0954    -482.1405    158282.19    34756.862   0.91923389 
  227000    700.95596    222.53646    157916.58    34406.423   0.92875688 
  228000    695.77906    1053.3719    157509.02    34152.314   0.93434192 
  229000     702.2202     175.9843    158245.09    34468.478   0.93114413 
  230000    705.63916    -1.173642    156895.54    34636.297   0.94245922 
  231000    701.78812   -812.86998    158067.85    34447.269   0.94179554 
  232000    702.92243    276.55086    157943.86    34502.947   0.94293887 
  233000    707.18605     254.2727    157616.41    34712.226   0.93040832 
  234000    698.01001   -841.54976       158331    34261.821     0.943801 
  235000    696.52273   -850.58187    157938.72    34188.817   0.95213142 
  236000    692.51613     1437.435    157742.25    33992.154   0.95496049 
  237000    706.17621   -384.13055    157798.18    34662.659   0.97040059 
  238000     698.7654    485.71475    157559.85    34298.899   0.96205211 
  239000    699.61559    1365.4138    157882.96    34340.631   0.96746748 
  240000    705.83133    565.75229    157333.42     34645.73   0.97381846 
  241000    699.81704    533.98114    157443.76    34350.519   0.97636721 
  242000     695.3817   -628.46118    158005.86     34132.81   0.97324345 
  243000       695.52   -578.19163    157873.85    34139.599   0.97221011 
  244000    699.75452    126.43487    158127.14     34347.45   0.98135211 
  245000    697.21466   -591.83586    157170.63    34222.781   0.98973672 
  246000    698.20159     575.7002    157855.39    34271.224   0.98529168 
  247000     700.3923   -804.30765    157450.41    34378.755   0.96956094 
  248000    706.36658    459.39832    157942.96    34672.003   0.97351019 
  249000    697.92791   -577.94534    157257.53    34257.791   0.97914895 
  250000    699.22496     36.43904    157783.71    34321.456   0.98242777 
  251000    694.82142   -592.84892    157734.88    34105.309   0.98713009 
  252000    700.19484   -720.24926    157759.82    34369.063   0.98422211 
  253000    701.06576   -518.26827    157278.99    34411.812   0.99112745 
  254000    700.47021    -1140.873    157455.93     34382.58   0.99920521 
  255000    697.94635   -159.36542     157962.2    34258.696   0.98932268 
  256000    698.05118    69.989133    157617.62    34263.841    0.9901024 
  257000    708.86528     151.8354    158000.79    34794.652   0.97778243 
  258000    699.46831   -683.45722    157862.31    34333.401   0.98345671 
  259000    694.57776    -455.3977    156991.58    34093.349   0.98504896 
  260000    701.42532    -838.4185    157600.38    34429.461   0.98812118 
  261000    712.49141   -388.30572    157880.04     34972.64   0.98201744 
  262000    700.65286    -921.5886    157327.11    34391.545   0.98432777 
  263000    700.29478   -110.13392    157628.05    34373.969   0.98425367 
  264000    695.24562    959.31254    158520.95    34126.131   0.98468629 
  265000    696.92347   -717.10036    157331.79    34208.488   0.98928332 
  266000    701.65871    354.21972    158125.91    34440.917   0.98570305 
  267000    693.79449    1259.8261    157943.72    34054.902   0.97992777 
  268000    694.16492   -315.50468    157698.21    34073.084   0.98352888 
  269000    701.23398    191.27766    157990.56    34420.069   0.99970031 
  270000    700.13141    1012.3845    158165.37     34365.95   0.99407236 
  271000    704.13391    -381.1789     157396.9    34562.412    1.0064477 
  272000    697.39233   -190.38344    157554.08    34231.502    0.9983809 
  273000    701.53395     1119.039    157780.89    34434.793   0.99324111 
  274000    694.67143    841.11484    157718.66    34097.946   0.98830486 
  275000    698.97909   -1046.6362     157876.1    34309.388   0.99299007 
  276000    702.90635    642.88051    157714.82    34502.158   0.99543895 
  277000    708.48781   -1368.8006     158294.3    34776.123   0.98116944 
  278000    696.23272   -20.552595    157619.85    34174.583   0.99054885 
  279000    704.46124   -1001.0023     157739.8    34578.479     1.001289 
  280000    697.69588   -810.16977    157286.54    34246.402   0.99167715 
  281000    696.32548   -869.68293    157908.41    34179.136    0.9823246 
  282000    703.75441    1297.9394    158077.55    34543.784   0.99282732 
  283000    700.14963   -47.218456    157330.23    34366.844    0.9981307 
  284000    696.69925    690.19005    157787.06    34197.482    1.0041763 
  285000    706.48683   -1120.0165    157512.45    34677.905   0.99513594 
  286000    697.25521    -1634.163    157872.42    34224.771   0.99325028 
  287000    699.99398    8.7224871    157236.24    34359.204   0.99623683 
  288000    698.08431   -531.95166    158017.44    34265.468   0.99226305 
  289000    702.51792   -453.89464    157326.85    34483.091   0.99591785 
  290000    698.41362   -748.85208    157677.36    34281.632   0.99908794 
  291000    695.70398    478.87373    158117.11    34148.629    1.0018728 
  292000    696.21004   -698.15004    157305.39    34173.469   0.99817152 
  293000    707.77054   -1503.8715    157492.64    34740.916    1.0055364 
  294000    695.30053   -1468.3496    156901.32    34128.826    1.0089572 
  295000      704.451    331.63278    157757.11    34577.977    1.0000765 
  296000    699.74882    229.79922    157565.68     34347.17   0.98656543 
  297000    701.52522    634.75186       157603    34434.365    1.0082669 
  298000    699.18085    88.969302    157714.08    34319.292   0.99766524 
  299000     699.0716    423.79268    157334.88    34313.929   0.99923028 
  300000    698.84091   -740.19186    157780.96    34302.605   0.99471511 
WARNING: Bond/angle/dihedral extent > half of periodic box length (../domain.cpp:907)
Loop time of 1214.81 on 40 procs for 100000 steps with 16468 atoms

Performance: 7.112 ns/day, 3.374 hours/ns, 82.318 timesteps/s
99.0% CPU use with 40 MPI tasks x no OpenMP threads

MPI task timing breakdown:
Section |  min time  |  avg time  |  max time  |%varavg| %total
---------------------------------------------------------------
Pair    | 222.27     | 577.94     | 709.34     | 413.7 | 47.57
Bond    | 85.976     | 182.29     | 220.67     | 198.1 | 15.01
Neigh   | 114.1      | 117.04     | 120.53     |  18.3 |  9.63
Comm    | 122.69     | 276.01     | 691.75     | 720.9 | 22.72
Output  | 0.010119   | 0.010872   | 0.030443   |   3.0 |  0.00
Modify  | 32.055     | 50.584     | 85.3       | 189.7 |  4.16
Other   |            | 10.93      |            |       |  0.90

Nlocal:    411.7 ave 470 max 278 min
Histogram: 1 0 0 1 1 5 10 12 6 4
Nghost:    7510.7 ave 7847 max 6964 min
Histogram: 2 1 1 3 5 2 8 10 4 4
Neighs:    205968 ave 246024 max 119159 min
Histogram: 1 0 0 1 3 5 9 13 4 4

Total # of neighbors = 8238706
Ave neighs/atom = 500.286
Ave special neighs/atom = 11.6425
Neighbor list builds = 7911
Dangerous builds = 0
unfix             3

fix               4 all npt temp 500 500 100 iso 100 100 1000
run               100000
WARNING: Bond/angle/dihedral extent > half of periodic box length (../domain.cpp:907)
Per MPI rank memory allocation (min/avg/max) = 15.6 | 16.38 | 17.03 Mbytes
Step Temp Press PotEng KinEng Density 
  300000    698.84091   -740.19186    157780.96    34302.605   0.99471511 
  301000    505.42391    -488.3595    147295.78    24808.732    1.0329131 
  302000    493.66868    1135.0322    146718.49    24231.726    1.0465822 
  303000    502.08026    815.18098    146893.01    24644.609    1.0483408 
  304000    500.88666    135.70897    146604.81    24586.021     1.053754 
  305000    495.62713    472.61535    146515.82    24327.857    1.0553047 
  306000    500.34326   -851.62942    147115.31    24559.348    1.0602577 
  307000    500.17689    166.78578    147010.49    24551.182    1.0579567 
  308000    497.08538    558.70321    146769.45    24399.435    1.0632689 
  309000    501.52254    349.44542    146523.99    24617.233    1.0597741 
  310000     495.1368    244.04357    146576.85    24303.789    1.0679871 
  311000    503.19335    747.30061    146481.33    24699.245    1.0661801 
  312000    501.64553    1316.1641    146687.28     24623.27    1.0651583 
  313000    501.50847    64.845897     146663.3    24616.543    1.0634868 
  314000    505.02249    678.08596       146618    24789.028     1.071482 
  315000    500.22524   -546.03971    146827.03    24553.555    1.0585029 
  316000    499.93979   -427.67922    146084.67    24539.544    1.0688215 
  317000    503.73767    1470.9948    146376.02    24725.963    1.0622152 
  318000    493.25978    41.551418    146191.16    24211.656      1.07034 
  319000    500.62304    698.12553    146481.13    24573.082     1.069799 
  320000    493.89724     863.6569    146007.59    24242.946    1.0677068 
  321000    506.28533    698.64297    146576.14    24851.015    1.0711639 
  322000    503.87737    379.76551    146761.51     24732.82    1.0558587 
  323000    502.29862   -598.99551    146732.12    24655.327    1.0692596 
  324000    504.70244   -459.99871    146875.54    24773.319     1.068403 
  325000    495.54317   -867.55395    146696.77    24323.736    1.0644204 
  326000    495.35478   -299.85813    146453.29    24314.489    1.0664168 
  327000    496.77453   -47.100912    147253.82    24384.177     1.074287 
  328000    494.52512    342.45015    146930.84    24273.765    1.0644535 
  329000    503.74597    1072.4128    146812.99     24726.37    1.0728885 
  330000    503.35994    -1567.479    147092.33    24707.422    1.0687637 
  331000    494.26064   -264.52136    146973.34    24260.783    1.0689656 
  332000    506.49757    1475.0288    146959.58    24861.433    1.0684202 
  333000     496.9333     992.2129    146728.49     24391.97     1.068233 
  334000    496.13229    1160.7244    146649.75    24352.653    1.0744324 
  335000    503.65604   -422.97281    146913.07    24721.956    1.0687905 
  336000    495.96861    1002.6004    146835.97    24344.619    1.0759956 
  337000    500.06688    615.48827    146541.22    24545.782    1.0728978 
  338000    497.52979   -719.83595    146716.22    24421.249    1.0762376 
  339000    500.37455    359.55229    146802.53    24560.884    1.0651372 
  340000    503.95069    271.93466     146853.8    24736.419    1.0759595 
  341000      496.705    98.066127    147079.37    24380.765    1.0676746 
  342000    498.40088    805.09332    147056.43    24464.007    1.0649013 
  343000    496.90361   -99.060799    146699.63    24390.513    1.0641725 
  344000    491.40975    739.81381    146918.16    24120.847    1.0721992 
  345000    496.96334   -117.01233     146701.8    24393.445    1.0762296 
  346000    499.46651    -500.5848    146327.86    24516.313    1.0661538 
  347000    501.07973     197.5439    146561.45    24595.498    1.0682709 
  348000     505.5993    671.91374    147126.92    24817.341    1.0720045 
  349000    495.00226    503.94667    146698.89    24297.186    1.0695156 
  350000    504.10243   -96.404746    146464.49    24743.867    1.0709713 
  351000    505.07331    314.02688    147264.79    24791.523    1.0597714 
  352000    495.38558   -1156.4708    147103.36    24316.001    1.0707614 
  353000    501.73019    413.91944    146915.87    24627.426    1.0699202 
  354000    499.27756    308.32922     146806.2    24507.039    1.0803726 
  355000    498.46749   -940.49562    146833.18    24467.276    1.0681798 
  356000    501.97831   -945.89509    146155.08    24639.605    1.0695047 
  357000    502.40053   -21.609347    146830.61    24660.329     1.064498 
  358000    495.87427    244.59783    146731.55    24339.988    1.0687124 
  359000    501.27251    207.68459    147097.78     24604.96    1.0628414 
  360000    496.66634   -1073.9453    146424.34    24378.867    1.0694265 
  361000    504.99282   -315.66807    146933.18    24787.572    1.0627871 
  362000    503.76648   -425.30302    146790.52    24727.377    1.0790571 
  363000     499.7854   -232.18057    147017.23    24531.966     1.068785 
  364000    500.36496    533.70496    146706.54    24560.414    1.0782703 
  365000    500.73063    830.34967    146701.57    24578.362    1.0710174 
  366000    499.15848    138.82526    146924.29    24501.194    1.0764084 
  367000     502.6314    59.180468    146958.13    24671.662    1.0691624 
  368000    502.04055   -456.48241    146605.13     24642.66    1.0666067 
  369000    496.61088    59.045695    146015.64    24376.145    1.0735097 
  370000    499.27341    1092.4761    146881.99    24506.835    1.0738796 
  371000    497.89226    637.53054    146273.12    24439.041    1.0679401 
  372000    505.53074    289.65157     146623.1    24813.976    1.0654678 
  373000    492.85081    210.77398    146456.91    24191.582    1.0668751 
  374000     503.3878    798.91492    146798.68     24708.79    1.0661581 
  375000    497.14839    1282.4089    146639.01    24402.528    1.0662731 
  376000    503.35016    2050.1615    146535.89    24706.942    1.0820519 
  377000    499.32975    98.985333    146868.06      24509.6    1.0701622 
  378000    494.62549    -386.8895    146504.94    24278.692    1.0747979 
  379000    501.80486   -477.60143    146670.13    24631.091    1.0679286 
  380000    501.23734    271.70007    146534.02    24603.234    1.0702494 
  381000    502.65786   -371.00309    146377.25    24672.961    1.0690371 
  382000    500.37054   -1223.7844    147059.25    24560.687    1.0734128 
  383000    500.37153   -388.81409    146729.08    24560.736     1.071298 
  384000    499.33668    135.99552    146548.97     24509.94    1.0716892 
  385000    504.89573    482.37775    146415.78    24782.807    1.0750373 
  386000    498.45348   -197.25902     146161.6    24466.589    1.0716638 
  387000    494.84773    438.29058    146559.01      24289.6    1.0631948 
  388000    494.53953   -1281.7534    146688.77    24274.472    1.0665064 
  389000    498.21178    20.716173    146864.67    24454.725    1.0670577 
  390000    500.94541   -534.38677    146414.17    24588.905    1.0657172 
  391000    500.65959   -652.82253    146245.24    24574.875    1.0721876 
  392000    504.09043   -1222.1699    146381.04    24743.279    1.0766461 
  393000    500.72556    1209.4616    146780.78    24578.113    1.0788427 
  394000    502.50854   -849.74468    146627.07    24665.631    1.0756866 
  395000    498.68016    261.41378    146834.27    24477.715    1.0778622 
  396000     502.4333    1784.2784    146990.09    24661.938    1.0668488 
  397000    499.81241    1002.4357    146791.56    24533.291    1.0645772 
  398000    502.86059    1555.8833    146424.59    24682.911     1.069896 
  399000       499.82   -462.21986    147250.24    24533.664    1.0651672 
  400000    497.02061    154.01363    146836.52    24396.256    1.0662523 
WARNING: Bond/angle/dihedral extent > half of periodic box length (../domain.cpp:907)
Loop time of 1174.78 on 40 procs for 100000 steps with 16468 atoms

Performance: 7.355 ns/day, 3.263 hours/ns, 85.123 timesteps/s
99.1% CPU use with 40 MPI tasks x no OpenMP threads

MPI task timing breakdown:
Section |  min time  |  avg time  |  max time  |%varavg| %total
---------------------------------------------------------------
Pair    | 337.67     | 638.47     | 730.62     | 347.2 | 54.35
Bond    | 98.623     | 181.36     | 209.21     | 177.1 | 15.44
Neigh   | 81.752     | 84.794     | 88.327     |  20.9 |  7.22
Comm    | 129.19     | 226.92     | 617.8      | 737.4 | 19.32
Output  | 0.010565   | 0.011246   | 0.03231    |   3.2 |  0.00
Modify  | 16.534     | 33.178     | 52.028     | 170.1 |  2.82
Other   |            | 10.05      |            |       |  0.86

Nlocal:    411.7 ave 452 max 309 min
Histogram: 1 0 1 2 0 3 5 16 8 4
Nghost:    7831.5 ave 8077 max 7390 min
Histogram: 2 2 1 1 2 6 7 7 9 3
Neighs:    220803 ave 252489 max 167167 min
Histogram: 1 3 0 1 2 8 8 10 5 2

Total # of neighbors = 8832135
Ave neighs/atom = 536.321
Ave special neighs/atom = 11.6425
Neighbor list builds = 5903
Dangerous builds = 0
unfix             4

fix               5 all npt temp 300 300 100 iso 100 100 1000
run               100000
WARNING: Bond/angle/dihedral extent > half of periodic box length (../domain.cpp:907)
Per MPI rank memory allocation (min/avg/max) = 15.62 | 16.39 | 17.04 Mbytes
Step Temp Press PotEng KinEng Density 
  400000    497.02061    154.01363    146836.52    24396.256    1.0662523 
  401000    296.19729    162.21813     136105.6    14538.844    1.1079556 
  402000    297.28361   -582.74417    136214.01    14592.166    1.1145924 
  403000    302.75523   -543.12567    136273.38     14860.74    1.1150961 
  404000    295.14391    -255.8126    135891.33    14487.138    1.1136685 
  405000    303.39856   -325.80317    136148.26    14892.318    1.1184403 
  406000    300.22461    262.23945    136388.67    14736.525    1.1179762 
  407000    299.50081   -177.65456    136010.24    14700.997    1.1232913 
  408000    302.05066    201.11637    136044.15    14826.156    1.1238365 
  409000    301.22813   -266.09564    136034.52    14785.782    1.1205596 
  410000    301.79897   -575.67316    136506.97    14813.802     1.118666 
  411000    297.01396   -412.04866    136501.47     14578.93    1.1188885 
  412000    301.17782    440.96303    136450.19    14783.313    1.1218329 
  413000    301.08287    77.573493    136211.43    14778.652    1.1197147 
  414000    294.80552    240.66903    135692.19    14470.529    1.1203768 
  415000    302.62809   -13.250866    135991.18    14854.499    1.1195952 
  416000    295.42397   -1360.1497    136152.37    14500.885    1.1175755 
  417000    301.77728    144.92691    136631.28    14812.737    1.1234516 
  418000    299.89888    1011.9735     136290.5    14720.536    1.1268673 
  419000    298.53141   -238.84729    136172.23    14653.414    1.1244016 
  420000    300.17258    816.65099    136415.45    14733.971    1.1236706 
  421000    296.20515   -29.663098    135905.29    14539.229    1.1207283 
  422000    300.27687   -163.74445    136010.09     14739.09    1.1218905 
  423000    300.01896   -324.55642    135888.83    14726.431    1.1216521 
  424000    296.57892    695.45787     136637.6    14557.576    1.1274551 
  425000    299.77409   -681.75702    136387.04    14714.411      1.12286 
  426000    299.75827    35.004355    136170.83    14713.634    1.1283202 
  427000    300.96013    389.46675     135952.7    14772.628      1.12423 
  428000    300.61857    304.12391    136160.92    14755.862    1.1183908 
  429000    300.05987    515.49882    136519.79    14728.438    1.1225588 
  430000     299.0505   -717.06538    136348.76    14678.894     1.122803 
  431000    301.69687   -161.71415    136014.06     14808.79    1.1243744 
  432000    300.89349   -661.31254    135991.88    14769.357    1.1280631 
  433000    302.16178    1329.2158    136176.07    14831.611    1.1297767 
  434000    302.28708    646.62166    136129.52    14837.761    1.1316778 
  435000    297.66608   -7.2238234    135497.58    14610.939    1.1305327 
  436000    302.85199    54.303691    136417.14     14865.49    1.1276732 
  437000    297.68107   -1070.5576    135872.02    14611.675     1.125076 
  438000    297.77106    796.81675    136276.67    14616.092    1.1278249 
  439000      301.305     291.8299    135845.46    14789.556    1.1281843 
  440000    299.26737    639.09358    135878.94    14689.539    1.1289674 
  441000    301.14196    289.61467    135998.38    14781.553    1.1276719 
  442000     300.5393    1028.0562    136060.28    14751.971    1.1251241 
  443000    297.32408   -65.940719    136172.23    14594.152    1.1283243 
  444000    298.34353    120.46005    136130.69    14644.192    1.1211934 
  445000    300.05414   -220.65181    136146.98    14728.157    1.1312816 
  446000    296.02428    78.664804    136515.36    14530.351     1.126092 
  447000    302.27657    843.80384    136420.72    14837.245     1.121657 
  448000    297.71359    223.67774    135937.58    14613.271    1.1275697 
  449000    297.06703   -504.72106    136333.83    14581.535    1.1243785 
  450000    301.05482   -65.853113    136002.11    14777.276    1.1262632 
  451000    297.84066     191.2897    136191.41    14619.508    1.1257579 
  452000    301.19008    647.31415    136229.88    14783.915    1.1280592 
  453000    299.18742    160.91007    135902.47    14685.614    1.1230763 
  454000    300.40269   -474.56652    136227.85    14745.266    1.1211384 
  455000    297.67224   -110.07353    136011.68    14611.242    1.1231917 
  456000    300.43381    711.84316    136086.91    14746.793    1.1281657 
  457000    298.87599   -800.11184    135643.55    14670.328    1.1277228 
  458000    296.55437    150.29743    136057.49    14556.371    1.1276524 
  459000    299.46079   -352.98938    135825.15    14699.033    1.1279664 
  460000    300.45001   -312.48024    135996.41    14747.589    1.1235281 
  461000    301.85713   -362.82106    136317.28    14816.657    1.1273938 
  462000    296.38079    734.98267    136547.34    14547.851    1.1267293 
  463000    301.51062    75.061751     136127.1    14799.648    1.1312108 
  464000    296.70031    658.71655    135902.41    14563.535    1.1260603 
  465000    298.33104   -96.976723    135896.28    14643.579    1.1267111 
  466000    298.47201    487.72568    136000.35    14650.498    1.1249054 
  467000    300.24008   -542.41484    136126.33    14737.284    1.1254586 
  468000    298.74146   -340.81027    136278.41    14663.724    1.1298808 
  469000     299.3152   -441.52858    135996.65    14691.886    1.1327593 
  470000      296.554   -66.261881     136103.7    14556.353    1.1269478 
  471000    299.80973    262.09803    136348.07     14716.16    1.1227746 
  472000    298.94733    648.46225    136103.13    14673.829    1.1259069 
  473000    301.15778    751.57707    136402.47     14782.33    1.1280294 
  474000    301.08448   -189.31122    136222.03    14778.731    1.1275659 
  475000    298.75229   -843.10471    136286.48    14664.256    1.1311315 
  476000    301.00841   -501.10619    136214.93    14774.997    1.1263158 
  477000    295.73872    673.96471    136521.47    14516.335    1.1258637 
  478000    300.64024   -14.442437    136395.77    14756.926    1.1248726 
  479000    299.92973    610.28934    136180.64    14722.051    1.1254012 
  480000    302.29618    550.79329    136296.48    14838.208    1.1229293 
  481000    298.92605    516.41839    136262.94    14672.785    1.1270133 
  482000    301.92412    445.53878    136121.35    14819.945    1.1261349 
  483000    299.77681   -89.228382    135914.49    14714.545    1.1217648 
  484000    303.97198    10.016296    136261.69    14920.465    1.1212854 
  485000    301.51419    319.57251    136952.62    14799.824    1.1222071 
  486000    298.61943    341.21566    135794.95    14657.734    1.1180463 
  487000    300.34528    -328.0298    136544.71    14742.448    1.1229684 
  488000    301.65402   -64.722013    136219.27    14806.687    1.1234207 
  489000    300.98586   -551.82459    135951.71    14773.891    1.1266762 
  490000    300.01458   -127.66799    136454.66    14726.215    1.1218669 
  491000    296.75902   -41.861635    135880.25    14566.416    1.1242432 
  492000    300.76186   -158.80425     136501.5    14762.896    1.1242729 
  493000     299.6205   -448.70352    135917.85    14706.872    1.1206085 
  494000    302.51188   -315.00316    135847.02    14848.795    1.1254953 
  495000    299.19935   -232.10743    136157.88      14686.2    1.1245213 
  496000    296.89435   -241.18851    135872.69    14573.059    1.1271077 
  497000    301.45822    -121.3107    136302.03    14797.077    1.1245452 
  498000    293.58687   -172.20655    136434.63    14410.711    1.1241934 
  499000    300.14919   -526.87268    136367.27    14732.823    1.1214117 
  500000    301.37212   -84.601121    136193.42     14792.85    1.1197674 
WARNING: Bond/angle/dihedral extent > half of periodic box length (../domain.cpp:907)
Loop time of 1167.68 on 40 procs for 100000 steps with 16468 atoms

Performance: 7.399 ns/day, 3.244 hours/ns, 85.640 timesteps/s
99.1% CPU use with 40 MPI tasks x no OpenMP threads

MPI task timing breakdown:
Section |  min time  |  avg time  |  max time  |%varavg| %total
---------------------------------------------------------------
Pair    | 404.07     | 667.57     | 759.45     | 321.4 | 57.17
Bond    | 120.81     | 180.74     | 210.48     | 158.9 | 15.48
Neigh   | 55.653     | 57.725     | 60.573     |  18.7 |  4.94
Comm    | 113.29     | 217.78     | 547.3      | 714.3 | 18.65
Output  | 0.010575   | 0.011381   | 0.031377   |   3.0 |  0.00
Modify  | 15.071     | 34.328     | 60.601     | 247.4 |  2.94
Other   |            | 9.526      |            |       |  0.82

Nlocal:    411.7 ave 447 max 328 min
Histogram: 1 1 0 0 2 6 7 11 8 4
Nghost:    8103.65 ave 8338 max 7692 min
Histogram: 1 3 0 2 4 3 9 7 7 4
Neighs:    231719 ave 261627 max 177837 min
Histogram: 1 1 1 0 4 6 10 11 4 2

Total # of neighbors = 9268779
Ave neighs/atom = 562.836
Ave special neighs/atom = 11.6425
Neighbor list builds = 3921
Dangerous builds = 0
unfix             5

fix               6 all npt temp 300 300 100 iso 1 1 1000
run               400000
WARNING: Bond/angle/dihedral extent > half of periodic box length (../domain.cpp:907)
Per MPI rank memory allocation (min/avg/max) = 15.62 | 16.4 | 17.04 Mbytes
Step Temp Press PotEng KinEng Density 
  500000    301.37212   -84.601121    136193.42     14792.85    1.1197674 
  501000    297.89092    991.72135    136169.81    14621.975    1.1225935 
  502000    298.16059    214.37064    135900.75    14635.212    1.1212143 
  503000    300.72652     178.8893     136186.1    14761.161    1.1232957 
  504000    299.06763   -77.689235    136249.97    14679.734    1.1261997 
  505000    300.44476     655.6035    136373.94    14747.331    1.1219432 
  506000    297.80285    502.01251    135809.79    14617.653    1.1177688 
  507000    300.47406   -884.87429    136552.63    14748.769     1.119085 
  508000     297.5136   -468.36153     136147.6    14603.455    1.1193118 
  509000     301.1604    -394.5295    135835.15    14782.458    1.1196206 
  510000    299.29751   -1092.4905    136311.23    14691.018    1.1198177 
  511000    300.62245    -871.5914    136266.25    14756.053    1.1210236 
  512000    300.52463   -161.61603    135993.25    14751.251     1.120795 
  513000    301.61048   -386.82125     136473.4     14804.55    1.1165491 
  514000     299.2243    606.21296    135792.16    14687.425    1.1243651 
  515000    300.31286    167.99152    136402.82    14740.856    1.1195544 
  516000    299.84369   -27.611448    135768.99    14717.827    1.1208458 
  517000    298.45287   -406.81248    136230.62    14649.559    1.1210313 
  518000    301.97776     500.1999    136154.14    14822.578    1.1230809 
  519000    300.97125    336.71884    136097.76    14773.174    1.1303859 
  520000     300.0451     830.0191    136559.91    14727.713    1.1255261 
  521000    300.64001   -256.90698    136068.04    14756.914    1.1209146 
  522000    296.10684   -163.42802    136171.51    14534.404    1.1244271 
  523000    302.55828   -401.41172    136118.05    14851.073     1.118667 
  524000    298.56997   -29.864348    136214.98    14655.307    1.1206444 
  525000    301.83096    438.03551    136290.34    14815.372    1.1252469 
  526000     297.5523   -331.54119    136384.42    14605.354    1.1242427 
  527000    301.52934   -331.02253    136426.25    14800.567    1.1229898 
  528000    303.89513    270.36448    135829.59    14916.692    1.1197653 
  529000    298.65665   -362.99466    135883.08    14659.561    1.1257187 
  530000    298.71506   -644.70354    136123.38    14662.428    1.1246044 
  531000    301.67461     156.4372    136238.16    14807.698    1.1229785 
  532000    299.76766   -410.91719    135977.38    14714.095    1.1241343 
  533000     299.0865    229.60187    136186.25    14680.661    1.1323846 
  534000    303.11315    -271.5241    136173.55    14878.309    1.1250805 
  535000    298.36842    551.14254    136145.67    14645.413    1.1268811 
  536000    301.72632    160.45909    136334.91    14810.236    1.1228762 
  537000    305.44936   -796.93984    136263.16    14992.981    1.1250876 
  538000    298.88852   -316.77274    136351.64    14670.943    1.1182582 
  539000     300.2723   -847.41498    136278.72    14738.866     1.127888 
  540000    299.67707   -524.91097     136326.4    14709.649    1.1206082 
  541000    303.45606   -353.30566    135929.68     14895.14     1.124704 
  542000    299.84281    42.330811    136219.65    14717.784    1.1217392 
  543000     301.0695    268.52367    136374.92    14777.996    1.1232999 
  544000    298.47837   -322.52536    135947.09    14650.811    1.1223971 
  545000    297.87335    1009.1096    136241.46    14621.113    1.1262243 
  546000    303.09095   -549.67151    136087.42    14877.219    1.1249816 
  547000    299.00301    172.89055    136001.17    14676.562    1.1234288 
  548000    297.59106    705.91375    136381.29    14607.257    1.1196812 
  549000    300.57458    985.27691    136330.11    14753.703    1.1188554 
  550000    297.49253    1028.2773    136184.07     14602.42    1.1274842 
  551000    303.91191   -120.15523    136100.98    14917.516     1.126304 
  552000     299.2284    606.34922    135688.27    14687.626    1.1194606 
  553000     302.6843   -153.21653    136094.15    14857.259    1.1201594 
  554000    299.67517    306.78678    135467.76    14709.555    1.1179102 
  555000    300.70862    515.40572    136324.02    14760.282    1.1209524 
  556000    302.96003    278.18099     136481.1    14870.793    1.1231784 
  557000    299.39567   -461.27363    135968.47    14695.836    1.1204946 
  558000    298.12912    -583.5445    136119.26    14633.667    1.1209523 
  559000    301.08793    969.17859    135993.82    14778.901    1.1263484 
  560000      299.429    408.94509    135820.59    14697.472    1.1155829 
  561000    299.37433    311.87335    136213.74    14694.789    1.1235609 
  562000    299.05319   -67.434188    135995.85    14679.026    1.1224675 
  563000    300.19442   -132.26013    135998.05    14735.043    1.1188425 
  564000    299.46583   -912.87172    135778.36     14699.28    1.1185083 
  565000    298.05729   -172.60927     136143.3    14630.142    1.1254832 
  566000    302.23151   -1086.2959    136008.58    14835.034     1.121836 
  567000    299.06046   -442.71583    135527.81    14679.382     1.121454 
  568000    299.80286   -118.19647    136199.92    14715.823    1.1279517 
  569000      301.558    -396.8658    136305.57    14801.974    1.1239415 
  570000    301.73664    769.85038    135994.73    14810.742    1.1189734 
  571000    300.57792    123.67441    136471.82    14753.867    1.1193023 
  572000    297.62412   -150.06713    136555.02     14608.88    1.1199719 
  573000    301.13246   -483.25209    136046.21    14781.086    1.1216639 
  574000    297.63876   -441.35177    135768.38    14609.598    1.1217739 
  575000      301.454   -146.32867    136096.61    14796.869    1.1238588 
  576000    297.67021    457.44506    136180.18    14611.142    1.1268069 
  577000    300.68653    374.01231    136415.11    14759.198    1.1208692 
  578000    295.87978    162.56986    136372.11    14523.259    1.1210837 
  579000    298.88049   -1045.3346    136055.62    14670.548     1.118363 
  580000    299.71576   -853.56991    135701.77    14711.548     1.114154 
  581000    298.93876   -465.45504    135996.61    14673.409    1.1224284 
  582000    300.54845   -108.61792    136360.19     14752.42    1.1204432 
  583000    301.24048   -123.29341    136021.03    14786.388    1.1198666 
  584000    298.69505    134.74997    136103.61    14661.446      1.11968 
  585000    300.25187    -230.8796    135766.04    14737.863    1.1176021 
  586000    300.93664    72.951475    135672.55    14771.475    1.1247627 
  587000    300.96893    1105.9891    136378.52     14773.06    1.1276343 
  588000    296.76636   -3.4316282    135895.26    14566.777    1.1240271 
  589000    303.36382    162.89034    136187.95    14890.613      1.12591 
  590000    301.49246   -98.737691    136353.63    14798.757    1.1194623 
  591000    298.46611   -382.42353    136461.82    14650.209     1.128096 
  592000    298.92057   -737.47728    136094.06    14672.516    1.1244826 
  593000    298.92789    1177.8187    136331.67    14672.875    1.1236169 
  594000    300.64303   -108.49155    135783.37    14757.063    1.1234225 
  595000    299.07429   -642.01916     136025.9    14680.061    1.1179113 
  596000    299.03323   -405.10231    136393.69    14678.046     1.124879 
  597000    301.26695   -149.65105    135641.32    14787.688    1.1259843 
  598000    299.04522   -31.437692    136203.82    14678.634    1.1207491 
  599000    298.07174   -286.82533    136220.82    14630.851    1.1278879 
  600000    301.35381   -49.863369    136057.94    14791.952    1.1214937 
  601000    299.66931   -160.14213    136230.08    14709.268    1.1216412 
  602000    302.17049   -712.76082    136177.38    14832.038    1.1231604 
  603000    299.14257    354.70733    136082.26    14683.413    1.1271613 
  604000    306.10082   -1247.1082    136167.43    15024.958    1.1184879 
  605000    300.09251   -238.65389    136232.39    14730.041    1.1198727 
  606000    301.17206    838.56924    136098.31     14783.03     1.125916 
  607000    297.39111   -132.35361    135730.57    14597.442    1.1199522 
  608000    299.18056   -588.89044    136152.06    14685.278    1.1222816 
  609000     296.9923    483.52353    136367.52    14577.867    1.1216691 
  610000    299.93142    385.71386    136473.92    14722.134    1.1214539 
  611000    297.90413    26.657545     135882.9    14622.624    1.1206203 
  612000    301.08161   -649.44994     136121.9     14778.59    1.1225052 
  613000    299.38515    471.83005    135893.36     14695.32    1.1163868 
  614000    299.69441   -28.397365    136414.17      14710.5    1.1264683 
  615000    299.05051   -354.45837    136159.46    14678.894    1.1271523 
  616000    300.49755   -440.21628    135971.81    14749.922    1.1181502 
  617000    297.51026      705.345    136325.83    14603.291     1.123563 
  618000    297.72386    455.18149     136238.9    14613.775     1.118525 
  619000     298.9645    270.79795    136383.02    14674.672    1.1262362 
  620000    292.99037    652.80831    136266.64    14381.432     1.124876 
  621000    300.66575   -356.44976    136079.19    14758.178    1.1243798 
  622000    298.30123   -1151.9999    136355.67    14642.116    1.1210831 
  623000    298.60626    9.0051992    136122.76    14657.088     1.122889 
  624000    302.38905    1261.4916    136024.51    14842.766    1.1235481 
  625000    299.96542    620.21783    135553.24    14723.802    1.1268969 
  626000    300.17701   -895.54658     136303.9    14734.188    1.1203343 
  627000    301.42458   -10.255144     136054.2    14795.425    1.1186046 
  628000    300.78496   -20.100748    136144.36     14764.03    1.1223971 
  629000    302.18817   -264.74285    135904.27    14832.906     1.125176 
  630000    299.58812   -917.32337     135714.6    14705.283    1.1229526 
  631000    299.49752   -190.30652    136112.58    14700.835    1.1252589 
  632000    300.01062   -312.37865    135639.16    14726.021     1.123086 
  633000    302.58171    25.140786    136339.56    14852.223    1.1247768 
  634000    303.98244   -67.910019    136179.98    14920.978    1.1235826 
  635000    300.82458   -346.42418    136336.88    14765.974    1.1292385 
  636000    296.29819   -817.32227    136115.68    14543.797    1.1218425 
  637000    301.11283     1108.797    136536.44    14780.123    1.1297317 
  638000    299.31901    111.88124    136136.13    14692.074    1.1246484 
  639000    300.05596   -343.05637    136192.21    14728.246    1.1252721 
  640000    302.48622     839.2342    136350.93    14847.536    1.1285935 
  641000    298.90435   -100.29062    136147.42     14671.72    1.1258811 
  642000    300.94406   -1020.0828    136355.13    14771.839      1.12285 
  643000     299.9388    44.988461    136056.19    14722.496    1.1239692 
  644000    298.86858   -902.15336    135543.36    14669.964    1.1235645 
  645000    302.02708   -942.37291    136110.57    14824.999    1.1247217 
  646000    301.12038   -1418.5695    135942.61    14780.494    1.1196829 
  647000    301.09018    276.22151    136132.27    14779.011    1.1200307 
  648000    298.99739    613.89912    136046.75    14676.287    1.1248351 
  649000    302.68548   -931.23759    135998.03    14857.316    1.1282193 
  650000    300.07316   -3.3823308    136218.62    14729.091    1.1252749 
  651000    299.09822    138.41976    136057.73    14681.236    1.1225892 
  652000    302.30459    186.00296    135809.62     14838.62    1.1251764 
  653000    297.73985    1200.5369    136023.06     14614.56    1.1257629 
  654000    300.74298   -950.54823    135763.03    14761.969    1.1247952 
  655000    300.44976    103.80497    136175.39    14747.576    1.1272397 
  656000    303.31179    816.44138    136095.34    14888.059     1.122281 
  657000    300.75874    383.88896    136180.31    14762.743    1.1212915 
  658000    302.24311   -1115.6846    136167.09    14835.603    1.1121646 
  659000    301.05034    648.13383    136244.76    14777.056    1.1173653 
  660000    302.66974   -130.29159    136268.49    14856.544    1.1195761 
  661000    299.45271   -533.57301    136349.18    14698.636    1.1210928 
  662000    298.84063    467.91223    136107.53    14668.592    1.1194121 
  663000    297.75953   -14.400347    135797.65    14615.526    1.1256164 
  664000    299.30993    394.70391    135887.35    14691.628    1.1233413 
  665000    298.17472    731.50425    135817.89    14635.906    1.1258298 
  666000    298.66327   -228.93696    136243.66    14659.886    1.1239251 
  667000    300.65808   -1386.4956    135963.68    14757.801    1.1151625 
  668000    301.97949    450.77676    135851.24    14822.663    1.1261415 
  669000    299.55509    -595.4893     135836.1    14703.661     1.117216 
  670000    304.38358   -218.36714     135938.8    14940.668    1.1206156 
  671000    297.34293   -598.11536     136319.5    14595.078    1.1199649 
  672000    301.73641   -1060.6102    136091.98    14810.732    1.1168739 
  673000    299.15113   -401.14372    136041.16    14683.833    1.1240858 
  674000    299.99242    549.62537    136016.41    14725.128    1.1239511 
  675000    299.91617   -279.45155    136382.25    14721.385    1.1221615 
  676000    297.82218    267.20885    135904.99    14618.602    1.1177061 
  677000    301.06747    163.60207    136378.84    14777.896    1.1234878 
  678000    298.38963   -323.36896    136156.08    14646.455     1.120598 
  679000    299.68918   -225.97073    135963.49    14710.243    1.1218242 
  680000    295.23111     644.2081    136037.51    14491.419    1.1200479 
  681000    300.59824    -303.9903    135735.54    14754.864    1.1212594 
  682000    302.24701   -69.366093    136448.19    14835.794    1.1161004 
  683000    300.83909    481.58396    135757.04    14766.687    1.1208958 
  684000    298.40373    549.36018    136185.46    14647.147    1.1204962 
  685000    298.68397   -785.09521    135900.87    14660.902    1.1248185 
  686000    300.45274    302.59404    136220.74    14747.723    1.1147175 
  687000    302.73891   -110.25299    136296.63    14859.939     1.116314 
  688000    298.01922   -661.30646    135666.31    14628.273    1.1247772 
  689000    301.33682    128.85997    136293.03    14791.118    1.1167696 
  690000    301.26583    478.98753    136400.42    14787.633    1.1203286 
  691000    301.97319   -484.44405    136278.79    14822.354    1.1213377 
  692000     298.7179   -552.92361    136355.46    14662.568    1.1208134 
  693000    300.88376    105.26553    136510.45    14768.879    1.1212172 
  694000    300.57477     260.1132    136112.65    14753.712    1.1271113 
  695000    299.47017   -471.98197    136076.23    14699.493    1.1230952 
  696000     295.6091    669.15289    136033.18    14509.972    1.1308614 
  697000     300.2044    -128.9913    136596.02    14735.533     1.125542 
  698000    296.76195   -192.02248     136351.7     14566.56    1.1282255 
  699000    300.08098   -428.84897    136334.09    14729.475    1.1288751 
  700000    300.40675    134.47177    136127.72    14745.465    1.1303492 
  701000     298.4383    398.78196    136873.32    14648.844    1.1294387 
  702000    299.30717    65.755614    136490.41    14691.492    1.1247513 
  703000    295.64426    204.15362     136188.3    14511.698    1.1238799 
  704000    297.36952     -601.755    136250.83    14596.383     1.124688 
  705000    302.64306    268.12115    136392.89    14855.234    1.1238903 
  706000    302.02638   -497.55048    136632.58    14824.965    1.1225343 
  707000    301.15396    228.77341    136140.39    14782.142    1.1230922 
  708000    297.44857    357.29199    136390.45    14600.263      1.12674 
  709000    298.85788   -483.15613    136018.51    14669.439    1.1231811 
  710000    300.27966   -11.028543    136413.06    14739.227    1.1205932 
  711000     300.3772    524.61701    135641.93    14744.015    1.1259859 
  712000    297.70152   -207.35788    136073.51    14612.679    1.1190124 
  713000    300.49568   -373.28737    135802.45     14749.83    1.1251132 
  714000    302.67963   -1117.8269    135937.23     14857.03    1.1265126 
  715000    300.71366   -738.45949    135840.08     14760.53    1.1246764 
  716000    302.09413    1017.0203    135948.99     14828.29    1.1238686 
  717000    298.50874   -912.28228    136370.75    14652.301     1.124724 
  718000    299.49772      -145.01    135838.18    14700.845    1.1231112 
  719000    300.10669   -60.641977     135658.3    14730.736    1.1211708 
  720000    302.09543    100.30087    136400.55    14828.354    1.1285405 
  721000    300.47127   -461.11142    135990.05    14748.632    1.1238985 
  722000    301.18586    376.59146    136199.55    14783.707    1.1256546 
  723000    302.97211    219.25506    135751.94    14871.386    1.1274246 
  724000    300.34108   -977.39779    136281.18    14742.242    1.1233482 
  725000    301.47918    46.897246    135699.03    14798.105    1.1238427 
  726000    299.01963    125.21099    136201.24    14677.378    1.1231373 
  727000     299.4034   -235.54016    136249.18    14696.215    1.1272522 
  728000    301.19494   -639.44356    136395.28    14784.153    1.1225888 
  729000    296.56129    412.00573    136390.03    14556.711    1.1279611 
  730000     298.8864    -158.1666    136335.08    14670.839    1.1298677 
  731000    300.42841      764.545    136432.94    14746.528    1.1262603 
  732000    299.80706    796.16752    135474.12    14716.029    1.1276462 
  733000    301.46472    744.90652    136353.67    14797.396    1.1262402 
  734000    300.91535    659.26288    135966.55     14770.43    1.1271236 
  735000    296.24766   -164.90752    136253.27    14541.316    1.1263935 
  736000    299.56277    173.63663     135877.4    14704.038    1.1229598 
  737000    303.08075   -307.36978    136005.66    14876.718    1.1236976 
  738000     300.2109   -568.55968    136126.98    14735.852    1.1231977 
  739000    302.38623    1219.3342     136373.6    14842.628    1.1226704 
  740000    298.68598     381.5979    136407.88    14661.001    1.1233414 
  741000    300.04077     240.6538    135427.07    14727.501    1.1282682 
  742000    301.38801   -433.86728    136283.58     14793.63    1.1234015 
  743000    300.00529   -473.32132    136395.24    14725.759     1.122458 
  744000    301.11147    1096.9897    136103.86    14780.056    1.1292872 
  745000    296.19289    329.61074    136375.43    14538.628    1.1234668 
  746000    300.40421    507.03962    135892.94     14745.34    1.1243775 
  747000    300.34199    165.96205    136650.68    14742.286    1.1236833 
  748000    297.91219    1268.1369    135672.02     14623.02    1.1238495 
  749000    298.17094   -346.65949    136099.34    14635.721    1.1248842 
  750000    299.97976    121.72846    136436.71    14724.506    1.1266789 
  751000    301.72374   -157.63833    135891.89     14810.11    1.1223768 
  752000    299.63461   -247.95676    136457.74    14707.564    1.1215669 
  753000    301.46651    64.239744     136060.2    14797.483    1.1260775 
  754000    300.26292    773.57598     136238.2    14738.405    1.1222479 
  755000    299.73229   -411.72123    136052.54    14712.359    1.1183205 
  756000    298.43187    471.09809    136206.75    14648.528     1.123269 
  757000    301.44745   -941.46274    136021.42    14796.548    1.1233886 
  758000    299.19162   -90.015446    136377.65     14685.82    1.1220071 
  759000    301.27686   -564.16442    136314.66    14788.175    1.1257744 
  760000    300.19578   -673.96033    136243.77     14735.11      1.11921 
  761000    297.96696   -982.71472    136300.23    14625.708    1.1217808 
  762000    301.01539   -15.928572     136493.1     14775.34     1.124993 
  763000    299.02559    808.58806    136094.61    14677.671    1.1308438 
  764000    301.75407   -629.84209    135948.73    14811.598    1.1242723 
  765000    297.79099    58.038579    135935.64    14617.071    1.1248533 
  766000      301.674   -69.758534    135896.28    14807.668    1.1251726 
  767000     298.1727   -221.65144    136281.99    14635.807    1.1262176 
  768000    299.19832    221.36379     136123.8    14686.149    1.1236075 
  769000    301.07257   -172.91436    136466.99    14778.147    1.1210938 
  770000    299.16669    452.79005    136453.96    14684.597    1.1245176 
  771000    301.55581    293.71588    136005.15    14801.867    1.1184395 
  772000    301.54779    687.64866    136389.99    14801.473    1.1200012 
  773000    299.40266   -568.26734    136377.41    14696.179    1.1233477 
  774000    301.09438   -309.55317    135986.92    14779.217    1.1220397 
  775000    301.51031   -558.30653    135985.89    14799.633    1.1240052 
  776000    299.53141    2.3208898    136100.36    14702.499    1.1253598 
  777000    297.39873    510.09128    135825.69    14597.817    1.1203976 
  778000    297.77694   -727.38377    136532.65    14616.381    1.1194276 
  779000    303.07875    459.20086    135906.57     14876.62    1.1215877 
  780000    300.68496   -475.82936    135928.67    14759.121    1.1255357 
  781000    300.17805     998.6242    136059.74    14734.239    1.1253309 
  782000    301.19147   -400.22666    136027.87    14783.983    1.1178781 
  783000    296.80928   -77.129483    135522.46    14568.883    1.1219039 
  784000    302.34185   -1142.4124    135965.15    14840.449    1.1168838 
  785000    299.74718    411.23653    136243.31     14713.09    1.1198634 
  786000    298.73357   -5.6033999    136380.75    14663.337     1.122795 
  787000    298.56907   -706.65703     136111.8    14655.263    1.1161574 
  788000    302.74485    552.28254     136409.2    14860.231    1.1203086 
  789000    299.52765    306.07011    136306.14    14702.315    1.1195258 
  790000    300.58862   -91.061733    136026.93    14754.392    1.1188717 
  791000    301.32799    188.36263    136224.32    14790.684    1.1171649 
  792000    299.76954   -389.54231    135777.49    14714.187    1.1187129 
  793000    300.15309    82.651259    135872.69    14733.014    1.1179249 
  794000    300.01722   -573.30484    135793.99    14726.345     1.123252 
  795000    299.10937    385.44093    136615.59    14681.783    1.1221429 
  796000    301.08623    250.16576    136371.16    14778.817    1.1194381 
  797000    297.39106   -256.09203    136075.22     14597.44    1.1216749 
  798000    298.44146    520.00447    136487.49    14648.999    1.1246888 
  799000    304.19424    145.07517    136498.23    14931.374    1.1272482 
  800000    299.67829   -390.02481    136441.78    14709.709    1.1249731 
  801000    299.16223   -825.96661    135921.53    14684.378    1.1197804 
  802000    300.20283   -509.36789    136125.01    14735.456    1.1234785 
  803000    297.30296   -296.60748    136254.14    14593.115     1.119246 
  804000    300.98034    -607.1399    136068.37    14773.619    1.1243941 
  805000    296.37177   -1158.2235    136700.96    14547.408    1.1249646 
  806000    302.84821   -378.74353    136015.67    14865.304    1.1235137 
  807000    300.27222   -142.76811    135779.34    14738.862    1.1207991 
  808000    298.56595   -255.44155    136290.59    14655.109    1.1245189 
  809000    300.27945    687.23562    136053.09    14739.217    1.1255746 
  810000    294.81774   -1367.6529    135674.69    14471.128    1.1213321 
  811000    300.25946    64.247584    136069.07    14738.235    1.1281332 
  812000    298.54129    740.23834       136151    14653.899    1.1180723 
  813000    298.81296    47.482213    136360.09    14667.234    1.1278475 
  814000    301.10371    -292.4251    136062.18    14779.675    1.1259248 
  815000    298.20703    303.12898    136078.78    14637.492    1.1263748 
  816000    301.48012   -234.71544    136089.05    14798.152     1.122675 
  817000    299.80147   -380.12735    135777.91    14715.755     1.121808 
  818000    298.36171    351.04922    136157.49    14645.084    1.1265444 
  819000    301.79304   -777.52623    135889.41    14813.511    1.1225651 
  820000     301.0364   -543.45878    135987.93    14776.371    1.1228608 
  821000    301.53374   -678.68447    136334.48    14800.783    1.1267265 
  822000    297.04296    1383.4034    136060.04    14580.354    1.1254246 
  823000    302.59148    945.62104    136329.83    14852.702    1.1266989 
  824000    299.53197   -1014.0986    136361.77    14702.526    1.1202446 
  825000    297.55266    -981.8191     136469.5    14605.372    1.1229768 
  826000    300.88221   -516.20267    135930.47    14768.803    1.1224147 
  827000    294.38746    -1027.221     136073.2    14450.008    1.1282187 
  828000    301.53973    221.72353    135758.62    14801.077    1.1240678 
  829000    306.27762   -392.07359    136226.46    15033.637    1.1226562 
  830000    299.75739   -679.23192    136361.28    14713.591    1.1266402 
  831000    298.17293   -91.212321    135984.61    14635.818    1.1232127 
  832000    304.37794    441.62518    135830.84    14940.391    1.1262244 
  833000    303.04924   -1000.5165    135998.62    14875.172    1.1224472 
  834000    296.70994    -547.0513    135997.95    14564.007    1.1230795 
  835000    302.72437   -761.86755    135962.57    14859.226    1.1227405 
  836000    300.84124   -129.76275    136158.23    14766.792     1.125856 
  837000    298.88312    235.26518     136170.2    14670.678    1.1215209 
  838000     300.0298    1058.2729    135500.05    14726.963    1.1318274 
  839000    298.41557    93.721084    135960.04    14647.728    1.1274691 
  840000    300.94245    167.23092    135555.85     14771.76    1.1243291 
  841000    303.04888   -505.03054    136712.82    14875.154    1.1240251 
  842000    299.11246    502.80695     135953.7    14681.935    1.1234506 
  843000    299.54352   -129.65248    135913.78    14703.093    1.1257804 
  844000    300.24167   -646.46945    136088.75    14737.362    1.1260751 
  845000    300.27075   -62.348757    136025.69    14738.789    1.1253708 
  846000    299.60667     277.1657    136075.55    14706.193    1.1257866 
  847000    299.47174    747.79079    135801.35     14699.57    1.1327852 
  848000    302.07636    1322.3967    136681.84    14827.418    1.1335886 
  849000    297.70958   -199.05312    136071.96    14613.074    1.1207981 
  850000    303.02128   -338.49516    135993.24    14873.799    1.1290345 
  851000    300.83604   -1374.6803    136031.13    14766.537    1.1199337 
  852000    299.15279      138.467    136109.36    14683.915    1.1244418 
  853000     301.7652   -79.024824    136312.61    14812.145    1.1230752 
  854000    304.05918    416.77163    136309.08    14924.745    1.1237428 
  855000    298.37318   -88.954381    135977.15    14645.648    1.1283458 
  856000    296.91381   -161.70729    135866.34    14574.014    1.1217735 
  857000    302.48372    41.711867    135932.99    14847.413    1.1193401 
  858000     303.0777    741.72522    136073.24    14876.569    1.1282747 
  859000    299.53924    407.84433    135844.07    14702.883    1.1234394 
  860000    296.97005    298.93796    135790.81    14576.775    1.1230307 
  861000     301.8695   -1002.9199    136418.31    14817.264    1.1229652 
  862000    299.39699    139.89598     135593.5    14695.901    1.1240128 
  863000    303.48289   -666.12488    135989.57    14896.457    1.1255376 
  864000    300.68135    422.65729    136465.22    14758.944     1.117874 
  865000     298.0036    567.16334    136045.32    14627.506    1.1274491 
  866000    302.75231    56.700468    136230.55    14860.597    1.1270789 
  867000      301.328    143.61893    135796.08    14790.684    1.1252856 
  868000    300.36024    -1066.227    135881.93    14743.182    1.1248209 
  869000    296.90985   -630.48009     136067.9     14573.82    1.1240862 
  870000    296.96045   -514.95951    136752.14    14576.303    1.1282449 
  871000    301.93627    560.86619    136492.85    14820.542    1.1321323 
  872000     300.0379     25.57281    136211.14     14727.36    1.1214712 
  873000    299.78695    131.05797    135887.81    14715.042    1.1246533 
  874000    301.14008   -81.016255    136127.98     14781.46    1.1320713 
  875000    300.13281   -38.172608    135753.67    14732.019    1.1337117 
  876000    297.79969   -318.36202    136413.34    14617.498    1.1250918 
  877000     300.0768   -38.534978    136018.87     14729.27    1.1227654 
  878000    298.47735    976.35513     135595.9     14650.76    1.1273297 
  879000    301.71005   -394.94446    136104.67    14809.438    1.1249522 
  880000    298.84554     244.8059    135916.42    14668.833    1.1227192 
  881000    299.05764    354.23616    136039.66    14679.244    1.1241754 
  882000    298.75021    615.58215     135957.9    14664.154     1.125873 
  883000    298.70843    247.16424    136049.27    14662.103    1.1247815 
  884000    298.18974   -479.42161    136142.89    14636.643    1.1264093 
  885000    300.49602   -633.11488    136000.64    14749.847    1.1257266 
  886000    306.35283   -24.858481    135584.99    15037.328     1.123904 
  887000    300.79305   -160.20335    136184.44    14764.427    1.1285561 
  888000    299.25017   -311.94252    136326.87    14688.694    1.1276982 
  889000    297.75011   -773.75432    136013.11    14615.064    1.1257007 
  890000    298.92215    398.83663    135992.59    14672.593    1.1290193 
  891000    302.81822    456.89002    136236.72    14863.832    1.1236294 
  892000    301.38025   -918.40659    135950.66    14793.249    1.1310333 
  893000    299.06902   -422.86404    135965.11    14679.803    1.1212725 
  894000    297.68011   -371.03434    136461.41    14611.628    1.1213891 
  895000    300.47894   -933.59096    135716.15    14749.009    1.1257544 
  896000    300.36111    2242.3426    135860.09    14743.225      1.12906 
  897000    302.23746   -782.77374     136182.6    14835.325    1.1256445 
  898000    297.51622    383.71503    136060.46    14603.583    1.1254578 
  899000    300.41756   -23.363197    136064.03    14745.995    1.1279364 
  900000    302.09994    558.89857    136051.84    14828.575     1.122006 
WARNING: Bond/angle/dihedral extent > half of periodic box length (../domain.cpp:907)
Loop time of 4688.7 on 40 procs for 400000 steps with 16468 atoms

Performance: 7.371 ns/day, 3.256 hours/ns, 85.312 timesteps/s
99.1% CPU use with 40 MPI tasks x no OpenMP threads

MPI task timing breakdown:
Section |  min time  |  avg time  |  max time  |%varavg| %total
---------------------------------------------------------------
Pair    | 1678.8     | 2666.3     | 3051.5     | 588.6 | 56.87
Bond    | 444.59     | 719.64     | 833.77     | 318.4 | 15.35
Neigh   | 222.43     | 230.51     | 243.53     |  37.0 |  4.92
Comm    | 492.35     | 909.94     | 2214.4     |1283.1 | 19.41
Output  | 0.041221   | 0.04401    | 0.1295     |   6.5 |  0.00
Modify  | 73.507     | 123        | 171.42     | 281.1 |  2.62
Other   |            | 39.3       |            |       |  0.84

Nlocal:    411.7 ave 443 max 344 min
Histogram: 1 0 2 0 2 4 9 14 3 5
Nghost:    8124.02 ave 8317 max 7836 min
Histogram: 3 2 1 1 3 9 6 5 6 4
Neighs:    232135 ave 253067 max 192079 min
Histogram: 2 1 1 1 2 6 7 8 9 3

Total # of neighbors = 9285390
Ave neighs/atom = 563.844
Ave special neighs/atom = 11.6425
Neighbor list builds = 15523
Dangerous builds = 0

write_data        C199H148N2O9_46new.data

Total wall time: 2:41:06
