LAMMPS (16 Mar 2018)
#

# variables available on command line

variable        T index 293.15      # K
variable        P index 5      # MPa
variable	    fe index 1.0302
variable        Patm equal ${P}/0.101325       # atm
variable        Patm equal 5/0.101325       

# global model settings

echo               both
units              real
dimension          3
atom_style         atomic
boundary           p p p

read_data         C199H148N2O9.data
  orthogonal box = (0 0 -70) to (201.685 30.2528 70)
  5 by 1 by 1 MPI processor grid
  reading atoms ...
  32936 atoms
pair_style         lj/cut   12.5
pair_modify        shift yes mix arithmetic

# pair_coeff

pair_coeff 	1	1	0.105	3.851
pair_coeff 	2	2	0.105	3.851
pair_coeff 	3	3	0.105	3.851
pair_coeff 	4	4	0.105	3.851
pair_coeff 	5	5	0.105	3.851
pair_coeff 	6	6	0.06	3.5
pair_coeff 	7	7	0.105	3.851
pair_coeff 	8	8	0.06	3.5
pair_coeff 	9	9	0.069	3.66
pair_coeff 	10	10	0.06	3.5
pair_coeff 	11	11	0.044	2.886
pair_coeff 	12	12	0.044	2.886
pair_coeff 	13	13	0.044	2.886
pair_coeff 	14	14    0.072896 2.958

# region

region            soall  block  EDGE EDGE EDGE EDGE -22  22 units box side in

# define groups
group		      ggcmc type 14
0 atoms in group ggcmc
group             wall  type < 14
32936 atoms in group wall

neighbor          2.0 bin
neigh_modify      every 1 delay 1 check yes  exclude group wall wall

#MD settings

variable 	      type14 atom "type==14"
group 	            type14 dynamic ggcmc var type14
dynamic group type14 defined
variable          nH2 equal count(type14)
compute           mtem type14 temp/com
compute_modify    mtem dynamic/dof yes

fix               1  wall nve/noforce  # move linear 0 0 0

# gcmc
fix               2 ggcmc gcmc 100 100 100 14 29494  ${T} 1 0.5 region soall pressure ${Patm} fugacity_coeff ${fe} group ggcmc
fix               2 ggcmc gcmc 100 100 100 14 29494  293.15 1 0.5 region soall pressure ${Patm} fugacity_coeff ${fe} group ggcmc
fix               2 ggcmc gcmc 100 100 100 14 29494  293.15 1 0.5 region soall pressure 49.3461633358006 fugacity_coeff ${fe} group ggcmc
fix               2 ggcmc gcmc 100 100 100 14 29494  293.15 1 0.5 region soall pressure 49.3461633358006 fugacity_coeff 1.0302 group ggcmc

fix               3 type14 nvt temp ${T}  ${T}  100
fix               3 type14 nvt temp 293.15  ${T}  100
fix               3 type14 nvt temp 293.15  293.15  100
fix_modify        3 temp mtem
WARNING: Temperature for fix modify is not for group all (../fix_nh.cpp:1404)

thermo            1000
thermo_style      custom step c_mtem pe ke atoms v_nH2

run               1000000
Neighbor list info ...
  update every 1 steps, delay 1 steps, check yes
  max neighbors/atom: 2000, page size: 100000
  master list distance cutoff = 14.5
  ghost atom cutoff = 14.5
  binsize = 7.25, bins = 28 5 20
  1 neighbor lists, perpetual/occasional/extra = 1 0 0
  (1) pair lj/cut, perpetual
      attributes: half, newton on
      pair build: half/bin/atomonly/newton
      stencil: half/bin/3d/newton
      bin: standard
Per MPI rank memory allocation (min/avg/max) = 6.074 | 6.089 | 6.102 Mbytes
Step c_mtem PotEng KinEng Atoms v_nH2 
       0            0            0            0    32936            0 
    1000     292.4289   -10.719266      225.923    33195          259 
    2000    290.51655   -19.267874    285.23957    33264          328 
    3000    290.12441   -26.696973    341.79763    33331          395 
    4000    282.39642   -31.208841    319.39114    33316          380 
    5000    286.24722   -38.223055    323.65111    33315          379 
    6000     304.5269   -32.627702    368.90484    33343          407 
    7000    304.06077   -42.507865    376.03268    33351          415 
    8000    292.66967   -53.076565    362.59206    33352          416 
    9000    292.58514   -56.277117    346.30327    33334          398 
   10000    305.89778   -49.448517    372.79909    33344          408 
   11000    278.52532   -47.876811    350.49215    33359          423 
   12000     283.5852   -55.648712    369.31413    33373          437 
   13000    295.53302   -53.019368    364.59971    33350          414 
   14000     290.8462   -52.786367    376.28828    33370          434 
   15000     300.4592   -53.241053    390.76468    33371          435 
   16000    293.78617   -60.473652    376.32361    33366          430 
   17000    285.73457    -53.78758    359.65782    33356          420 
   18000    296.87189   -65.368361    382.76248    33368          432 
   19000    309.22469   -62.900061    391.64712    33361          425 
   20000    286.11806     -67.5449    352.78929    33350          414 
   21000    287.75817   -64.106265    369.29536    33367          431 
   22000    289.16451   -67.872756    356.31453    33349          413 
   23000    291.96925   -64.548178    368.18664    33359          423 
   24000    297.93928   -66.384443    389.64662    33375          439 
   25000    279.71341   -64.711284     358.0701    33366          430 
   26000    285.65614   -71.286541    351.11614    33346          410 
   27000    309.25351   -64.739231    378.11396    33347          411 
   28000    298.12771   -59.975364    369.43424    33352          416 
   29000     298.2712   -69.481191    375.40792    33359          423 
   30000    293.91707    -72.66813    369.55117    33358          422 
   31000    280.52338   -75.695888    377.29128    33388          452 
   32000    293.93565   -75.871168    399.89182    33393          457 
   33000    281.55337   -77.637944    379.82187    33388          452 
   34000    276.97928   -69.423916    334.10408    33341          405 
   35000    287.77048   -67.951335    364.89601    33362          426 
   36000    298.15753   -66.481828    383.16573    33368          432 
   37000    290.39645   -73.612281    380.33264    33375          439 
   38000    265.14393   -70.931097    370.56432    33405          469 
   39000    301.03258    -71.41721    411.04073    33394          458 
   40000    292.54601   -75.563773    402.85612    33395          459 
   41000    296.76884   -81.494876    409.95356    33400          464 
   42000    299.05682   -73.832088    395.72702    33380          444 
   43000    274.18586   -71.940912    371.73519    33388          452 
   44000    290.55328   -67.061508    381.45454    33377          441 
   45000    308.51622   -67.968939    429.62435    33404          468 
   46000    284.77305   -71.043313    373.22845    33376          440 
   47000    300.97052   -68.889965    396.89071    33377          441 
   48000    300.78462   -78.013657    397.87077    33380          444 
   49000    274.04525   -71.176056     367.5116    33384          448 
   50000    288.31672   -73.072704    349.39869    33343          407 
   51000    265.64302   -66.415826    316.16615    33334          398 
   52000    302.31278   -66.037922    372.40954    33348          412 
   53000    300.11707   -64.910713     359.4955    33338          402 
   54000    308.86433   -76.336468    401.19741    33370          434 
   55000    291.54517   -69.300801     366.0641    33358          422 
   56000    289.81753   -75.408642    371.26544    33366          430 
   57000    289.47939   -85.106518    417.15423    33419          483 
   58000    320.82235   -77.957126     431.8823    33387          451 
   59000    292.81028    -69.00037    405.55054    33401          465 
   60000    269.01416   -73.980107    355.42831    33379          443 
   61000    280.58478   -80.517227    363.14111    33371          435 
   62000    301.98801   -79.396562    420.68196    33404          468 
   63000    280.31397   -72.319197    372.22394    33382          446 
   64000    302.75029   -71.506121    372.25529    33349          413 
   65000    297.47244   -77.282788    386.68662    33373          437 
   66000    295.54195   -73.799532    341.34079    33324          388 
   67000    277.97157   -76.098324    351.31317    33360          424 
   68000    272.80285   -75.953713    359.21031    33378          442 
   69000    293.98337   -78.403583    384.62036    33375          439 
   70000    301.74141    -71.06339    399.01857    33380          444 
   71000    297.71321   -70.035723    398.19714    33383          447 
   72000    288.48258   -69.082245    366.61502    33361          425 
   73000    289.27502   -74.426421    350.28985    33343          407 
   74000    303.89841   -70.337646    376.96447    33353          417 
   75000    281.98982   -62.879254    344.10135    33346          410 
   76000    303.46498   -72.501805    383.19949    33360          424 
   77000    295.89717   -72.175181    409.72664    33401          465 
   78000    284.50227   -69.392408     392.0723    33398          462 
   79000    283.88063   -71.089267    372.23712    33376          440 
   80000    287.63243   -78.551307    392.91259    33394          458 
   81000    271.72962    -82.31358    360.57013    33379          443 
   82000     291.3359   -92.321392    403.10913    33401          465 
   83000    304.36253   -86.320428    394.94254    33372          436 
   84000    280.23008    -87.57968    394.65474    33408          472 
   85000    301.42214   -72.275371    397.59635    33378          442 
   86000    303.19134   -80.189251    384.26058    33361          425 
   87000    267.39574    -84.06227    333.02676    33354          418 
   88000    264.51739   -80.931902    336.19767    33363          427 
   89000    306.15194   -77.080708    406.38781    33382          446 
   90000    311.19736   -81.745006    412.49065    33381          445 
   91000    284.19993   -86.395281    385.57596    33391          455 
   92000    264.80199   -78.501216    357.18631    33389          453 
   93000    291.00169   -80.579871    371.66347    33363          427 
   94000     307.0006   -86.442292     408.8332    33383          447 
   95000    310.46745   -85.151557    388.05935    33356          420 
   96000    298.21382   -89.285119    403.61248    33389          453 
   97000    297.97878   -93.110622    385.12794    33370          434 
   98000    290.34316   -76.529326    377.81266    33372          436 
   99000     288.1016   -78.971128    364.38787    33361          425 
  100000    302.53799   -74.138149     380.8749    33359          423 
  101000    303.68716   -87.511785     414.5052    33391          455 
  102000    287.44916   -91.613911    373.19653    33372          436 
  103000    279.18639   -93.546222    404.45577    33422          486 
  104000    290.89571   -92.743284    400.79118    33399          463 
  105000    299.23607   -92.614168     401.0025    33386          450 
  106000    296.12628   -93.211153    404.30969    33395          459 
  107000    287.43524   -88.788949    397.22669    33398          462 
  108000    291.65096   -84.943903    352.36373    33342          406 
  109000    320.66945   -82.818616    416.27486    33372          436 
  110000     288.5591   -80.138468     368.9001    33363          427 
  111000    284.72936   -74.095275    346.66919    33344          408 
  112000    295.22492   -85.531011    359.66456    33345          409 
  113000    305.54357   -78.104815    398.99129    33375          439 
  114000    297.30781   -91.795697    380.98479    33366          430 
  115000    282.83164   -81.828883    361.41539    33365          429 
  116000    291.54297   -80.858291    389.78988    33383          447 
  117000    284.26175   -78.993588    404.53623    33414          478 
  118000     279.5357   -75.194753     357.6696    33366          430 
  119000    316.38568   -72.125258    391.78068    33352          416 
  120000    273.75291   -78.342618    368.96113    33389          453 
  121000    288.94841   -80.112463    370.83723    33366          430 
  122000    283.69976     -75.8839    362.40142    33364          428 
  123000    286.69996   -83.088733    397.83245    33401          465 
  124000    268.77861   -78.233692    357.67415    33382          446 
  125000    289.24265   -76.045567    392.94277    33392          456 
  126000    292.62441   -78.510098    393.65973    33388          452 
  127000    304.38611   -85.816968    411.45944    33389          453 
  128000    290.95272   -85.056829    403.52973    33401          465 
  129000    283.45047    -80.55938    366.23472    33369          433 
  130000    303.25412   -77.784241    418.43651    33398          462 
  131000     302.6394   -79.022589    415.62046    33396          460 
  132000    310.64552    -72.74273    429.42795    33400          464 
  133000    278.95574   -79.236286     370.3037    33382          446 
  134000    287.19894   -68.671938    377.41323    33377          441 
  135000    307.95906   -76.424364     391.1657    33362          426 
  136000    270.39145   -82.347384     362.1102    33382          446 
  137000    306.73255   -82.352709    399.76222    33374          438 
  138000    267.14627   -73.959027     353.3539    33379          443 
  139000    293.51428   -79.659714    389.52918    33381          445 
  140000    292.33028   -83.718472    370.77168    33359          423 
  141000    275.78708   -80.046333     367.0302    33383          447 
  142000    289.79752   -86.942739    407.32736    33407          471 
  143000    293.28481   -87.019782    385.89066    33377          441 
  144000    268.51154   -79.402539     345.4817    33367          431 
  145000    304.63468   -96.278523    418.96211    33397          461 
  146000    284.11924   -93.269562    395.30443    33403          467 
  147000    315.38385   -83.859529    428.80439    33393          457 
  148000    296.41003    -94.14778    404.08353    33393          457 
  149000    270.60391   -92.337748    366.35385    33391          455 
  150000    288.32278   -83.983044    374.37833    33371          435 
  151000    294.86864    -80.43692    377.40785    33365          429 
  152000    306.46572   -71.709344    398.12122    33372          436 
  153000    295.30845   -73.911072    416.00345    33409          473 
  154000    288.13015   -89.485249    388.20023    33388          452 
  155000    292.76634   -97.974251    396.14216    33390          454 
  156000    310.60454   -79.512466    433.54073    33403          467 
  157000    302.35731   -81.969306    396.08743    33376          440 
  158000    264.01554   -90.552416    344.38065    33374          438 
  159000    303.68286   -92.674558    379.04479    33355          419 
  160000    283.08171   -95.883018     381.8041    33389          453 
  161000    290.74274     -85.6087    392.22589    33388          452 
  162000    296.70702    -91.51704    417.46723    33408          472 
  163000    303.77811    -83.92692    403.10273    33382          446 
  164000    297.06835   -82.432777    393.44696    33381          445 
  165000    284.73356   -86.107257    385.45165    33391          455 
  166000    278.96685   -75.092106    379.29833    33393          457 
  167000    278.11188   -74.418603    363.69278    33375          439 
  168000     298.4485   -72.266346    388.23087    33371          435 
  169000    300.55466   -75.434322    386.16709    33367          431 
  170000    294.82648   -76.042586    378.74581    33367          431 
  171000    282.50957   -75.109493    381.69986    33390          454 
  172000    292.13033   -74.270108    376.23067    33369          433 
  173000    290.73857   -81.954146    361.48084    33354          418 
  174000    274.53624   -78.631326    368.10923    33385          449 
  175000    311.43331   -68.817069    385.82974    33351          415 
  176000    301.16209   -82.657162    402.25412    33384          448 
  177000    272.82096   -72.380184    369.76464    33391          455 
  178000    296.78792   -71.473228    354.31006    33337          401 
  179000    295.24888   -71.548068    382.68119    33369          433 
  180000     281.4825     -66.0314    361.28437    33367          431 
  181000    287.43263   -79.805056    373.83167    33372          436 
  182000    291.74757   -68.831165     361.2562    33351          415 
  183000    301.99215   -71.162206    390.79206    33369          433 
  184000    304.91401   -60.880272     395.1266    33370          434 
  185000    280.31187   -77.487067     357.6543    33365          429 
  186000    293.25307   -72.841617       359.83    33348          412 
  187000     282.6392   -72.956785      382.478    33389          453 
  188000    290.81249   -71.015315    367.53997    33358          422 
  189000    307.91898   -74.845585    427.36405    33402          466 
  190000    292.38199   -75.819119    348.03509    33335          399 
  191000    291.51184   -66.459281    381.18111    33375          439 
  192000    313.66695   -76.953215    413.77829    33379          443 
  193000    275.32094   -90.332993    390.27719    33412          476 
  194000    283.71413   -75.793575    371.05893    33375          439 
  195000    297.74774   -74.355312    397.03101    33384          448 
  196000    280.26853   -73.977271    355.84366    33362          426 
  197000    292.88957    -77.92888    384.97506    33377          441 
  198000    300.71901   -74.479643    355.55364    33333          397 
  199000     297.9345   -84.837847    380.83992    33365          429 
  200000    289.14817   -81.230435    385.35423    33384          448 
  201000    292.02169   -78.214112    363.02812    33353          417 
  202000    268.02705   -90.943125    374.73308    33404          468 
  203000    301.05673    -88.31501     398.5907    33381          445 
  204000    285.16266   -92.795011    380.37776    33384          448 
  205000    288.47123   -91.141902    376.23553    33373          437 
  206000    297.34476   -85.477376    413.02075    33402          466 
  207000    299.59867   -86.779146    388.86364    33371          435 
  208000    292.24268   -76.337909    391.14922    33384          448 
  209000    284.96291    -71.77443     347.6825    33346          410 
  210000    281.04071   -69.584258    339.46051    33342          406 
  211000    316.91463   -70.806695    398.79037    33358          422 
  212000    282.22866   -75.648569    378.83989    33387          451 
  213000    317.00569   -78.464418    414.15073    33375          439 
  214000    286.88685   -74.011476    378.10535    33379          443 
  215000    283.55449   -69.626326    380.81389    33387          451 
  216000    297.56867   -77.456286    410.81603    33400          464 
  217000    299.77713   -61.480613    372.98047    33354          418 
  218000    279.13837   -80.379306    385.42958    33400          464 
  219000    285.74371   -70.949623    385.25165    33389          453 
  220000    284.84018   -82.757375    371.99179    33374          438 
  221000    284.15834     -75.7997    368.08979    33371          435 
  222000     285.9235   -80.302189    384.52475    33388          452 
  223000    306.63128   -77.737021    411.18363    33386          450 
  224000    299.98918   -79.831844    381.66251    33363          427 
  225000    295.96044   -65.918522    388.38182    33377          441 
  226000    288.86509   -72.269965    368.51577    33364          428 
  227000    302.20019   -65.650024    393.51538    33371          435 
  228000    301.29466   -62.115427    366.15878    33344          408 
  229000    292.78899   -65.809617     378.7863    33371          435 
  230000    278.91031   -69.299203    340.12848    33345          409 
  231000    296.57056   -65.142168    378.23074    33364          428 
  232000    319.47125   -76.972022    417.29403    33375          439 
  233000    286.59633   -58.846336    364.90542    33364          428 
  234000     296.0266   -70.744637    368.53772    33353          417 
  235000    306.89082   -72.840579    399.78316    33374          438 
  236000    269.24981    -74.76237    344.80647    33365          429 
  237000    306.22002   -72.092956    367.77625    33339          403 
  238000    289.05762   -67.321248      349.593    33342          406 
  239000    305.37114   -78.418869    382.56012    33357          421 
  240000    287.81718   -66.016744    366.67681    33364          428 
  241000    287.76288   -71.760944    353.71413    33348          412 
  242000     282.9054   -62.585864    356.53733    33357          421 
  243000     286.1394   -69.803887    380.01148    33382          446 
  244000    294.38726   -64.372056     360.3513    33346          410 
  245000    287.92633   -70.790024    357.55271    33353          417 
  246000    281.87099   -72.538177    357.67968    33362          426 
  247000    287.33716    -78.56692    356.22116    33352          416 
  248000    285.04535   -73.685934    375.49475    33378          442 
  249000    275.52813   -81.541423    361.37503    33376          440 
  250000    278.48363   -80.706827    372.31551    33385          449 
  251000    296.35655   -87.755717    418.18571    33410          474 
  252000    324.68174   -88.291087    461.75366    33413          477 
  253000    290.08747   -84.308134    364.22748    33358          422 
  254000    285.88651   -82.658919    355.30388    33353          417 
  255000    277.57964   -85.185561     356.9199    33367          431 
  256000    283.29871   -85.308398    377.91614    33384          448 
  257000    297.00768   -81.613648    365.30038    33349          413 
  258000    315.23186   -85.584379    412.04594    33375          439 
  259000    300.10819   -88.563106    400.90807    33385          449 
  260000    274.98996   -85.448546     368.7359    33386          450 
  261000    293.56185   -88.861672    411.66444    33407          471 
  262000    286.53799   -82.184703    389.75573    33393          457 
  263000    294.87676   -83.426667    385.78141    33374          438 
  264000    306.84522    -82.68704    431.65188    33408          472 
  265000    282.15828   -77.045114    367.84641    33374          438 
  266000    273.31207   -75.478747    369.36382    33390          454 
  267000    290.33693   -80.343152    354.51283    33346          410 
  268000    316.10103   -76.128439    380.91595    33341          405 
  269000    300.41323   -82.002673    363.63996    33341          405 
  270000    292.04929   -75.269295     379.3182    33371          435 
  271000    289.01602   -76.136293    366.85592    33361          425 
  272000    300.11487    -88.16087    395.63653    33379          443 
  273000    271.07217   -79.543329    374.84435    33400          464 
  274000    299.54472   -84.848141    372.80596    33354          418 
  275000    308.76414   -82.107126     395.0994    33365          429 
  276000    308.48395   -78.602197    419.13435    33391          455 
  277000    286.48924   -81.809347     363.5341    33362          426 
  278000    299.13156   -72.103784    387.76503    33370          434 
  279000    297.87672   -76.372182    403.81647    33391          455 
  280000    284.84267   -82.465787    394.08483    33401          465 
  281000    288.79277    -72.13053    387.04517    33384          448 
  282000     272.5185   -75.317682    346.15548    33363          427 
  283000    309.55003   -86.107686    427.52577    33400          464 
  284000    297.81176   -86.607522    384.95337    33370          434 
  285000    276.42176   -80.161539    375.03476    33390          454 
  286000    286.71835   -81.157921    351.07974    33347          411 
  287000    282.20261   -78.273494    358.41626    33363          427 
  288000    293.40631   -81.770852    385.78017    33376          440 
  289000     300.5179   -84.081803    407.34509    33391          455 
  290000    293.71702    -88.48443    382.14227    33373          437 
  291000    291.18645   -85.807338    375.08427    33367          431 
  292000    276.15434   -86.192907    366.03379    33380          444 
  293000     300.6683    -80.42808    394.54943    33377          441 
  294000    280.48575   -85.952263    360.21887    33366          430 
  295000    265.51606      -84.676    351.96901    33381          445 
  296000    295.18521   -80.142657    376.68122    33364          428 
  297000    308.95875   -80.198424    376.24987    33345          409 
  298000    292.49599    -73.07423    354.35894    33342          406 
  299000     278.9682   -78.317344    349.34307    33357          421 
  300000    281.80668   -72.127992    346.77514    33348          412 
  301000    297.97894   -71.529619    389.64476    33375          439 
  302000    307.98753   -72.823054    391.00151    33362          426 
  303000    287.35853   -78.856604     369.3523    33368          432 
  304000    269.62583   -83.659046    362.66959    33388          452 
  305000    298.45048   -73.162997    392.46041    33377          441 
  306000    278.07269   -74.865107    355.09842    33365          429 
  307000    307.26614   -70.259713    369.42619    33340          404 
  308000    307.96279   -72.437507    382.13153    33352          416 
  309000    287.17997    -81.84065    355.90263    33352          416 
  310000     294.2055   -77.159741    392.87454    33384          448 
  311000    296.12657   -85.346003     378.2023    33364          428 
  312000    284.03697   -89.582518    384.44617    33391          455 
  313000    303.04867   -93.089736     399.7273    33378          442 
  314000    293.91014   -90.279026    402.84153    33394          458 
  315000     295.8536   -93.578632    389.93342    33379          443 
  316000    278.07633   -87.763138    385.01603    33398          462 
  317000    291.39957   -82.084676    376.77042    33370          434 
  318000    289.10473   -88.731602     411.0859    33412          476 
  319000    281.96327    -89.41784      399.181    33411          475 
  320000    291.41845   -95.910022    439.14276    33442          506 
  321000    289.70015   -96.972419    394.76671    33394          458 
  322000     291.8725   -96.872626    417.60015    33416          480 
  323000    305.99291   -86.435588    393.58433    33368          432 
  324000    295.87944   -87.824996     399.4216    33389          453 
  325000    278.60329    -87.00127    352.55048    33361          425 
  326000    286.55348   -79.213532    367.92874    33367          431 
  327000    280.77668   -82.999868    364.36665    33372          436 
  328000    299.25367    -100.9377    438.90428    33428          492 
  329000    283.62524   -95.518209     391.6976    33400          464 
  330000    284.96457   -83.463198    377.79737    33381          445 
  331000    318.24265   -87.180473    440.54598    33398          462 
  332000    287.20225   -84.907717    390.47714    33393          457 
  333000    297.33807    -86.74862    425.01264    33414          478 
  334000    262.17874    -85.52081    364.98654    33404          468 
  335000    295.02295   -92.017534     414.6432    33408          472 
  336000    293.93402   -88.596334    408.04027    33401          465 
  337000    293.78233   -90.927239    389.10798    33380          444 
  338000    290.91677   -88.422718     390.1871    33385          449 
  339000    305.67808   -90.361574    423.12289    33400          464 
  340000    308.82222   -87.886921    425.71764    33399          463 
  341000    298.28131   -87.344461    386.46677    33371          435 
  342000    301.54979   -85.586488    399.53553    33381          445 
  343000    298.85029   -88.525442    408.05303    33395          459 
  344000    289.29028   -98.510405    399.19624    33399          463 
  345000    293.90359   -104.22033    420.62607    33417          481 
  346000    328.19243    -95.25681    479.16706    33426          490 
  347000    290.49126   -93.130363    391.75672    33389          453 
  348000    289.75075   -86.163109    372.29275    33367          431 
  349000     277.8576   -76.887117    354.72421    33364          428 
  350000    296.26718   -77.879035    357.67734    33341          405 
  351000    298.01351   -71.655884       378.83    33362          426 
  352000    293.37961   -76.057003    335.24668    33320          384 
  353000    289.96611   -71.393722    359.20294    33352          416 
  354000    305.72537   -62.586298     379.0578    33351          415 
  355000    298.10172   -65.851694    386.13853    33370          434 
  356000    282.96873   -66.096615     354.2839    33357          421 
  357000    297.61463   -60.495578    364.57674    33347          411 
  358000    299.22982   -65.537509    382.81867    33365          429 
  359000    300.08144   -75.341173     391.9118    33375          439 
  360000    280.07593   -76.780233    359.45129    33367          431 
  361000    307.50571    -82.19626    390.73306    33363          427 
  362000    305.56754   -78.304575    398.14697    33374          438 
  363000    278.02243   -81.562127    385.31206    33401          465 
  364000    292.56343   -85.895619     407.7765    33404          468 
  365000    295.19415    -81.35908    376.04276    33363          427 
  366000    287.07173   -81.201342    365.68118    33364          428 
  367000    311.35916    -79.54502    382.90076    33349          413 
  368000    292.67065   -69.284532    360.97735    33350          414 
  369000    305.97155   -88.073824    385.12405    33359          423 
  370000     286.5321   -79.873529    370.23471    33370          434 
  371000    290.62083   -84.871314    396.48107    33391          455 
  372000    302.26119   -93.551765    400.53186    33381          445 
  373000      280.429   -87.874988    380.55074    33391          455 
  374000    280.14111   -99.739402    376.34286    33386          450 
  375000    312.59675   -92.631985    424.82628    33392          456 
  376000    302.58384   -90.742452    397.89053    33378          442 
  377000     280.7096   -76.984988    369.01571    33378          442 
  378000    314.79505   -84.206139    423.33743    33386          450 
  379000    300.78944    -77.76972    409.15059    33392          456 
  380000     286.4934   -79.121578    380.11557    33380          444 
  381000    298.98179   -74.654634    395.63562    33380          444 
  382000    298.77669   -83.679229    389.31367    33374          438 
  383000    297.17338   -81.803213    406.83547    33396          460 
  384000    308.95676   -78.453746    414.97454    33387          451 
  385000     317.1744   -75.882428    405.32127    33365          429 
  386000    304.98174   -74.711234    405.81947    33382          446 
  387000    296.98919   -72.896835    412.09303    33402          466 
  388000    286.88943    -77.10471    388.29737    33390          454 
  389000    302.64922   -80.773518     373.6533    33349          413 
  390000    266.83645   -76.809568    351.96868    33378          442 
  391000    287.29545   -76.225218    361.16503    33358          422 
  392000    286.85524   -81.610189     371.8739    33371          435 
  393000    296.10153   -81.405389    394.03468    33383          447 
  394000    297.21556   -88.631859    396.90906    33385          449 
  395000    295.73066   -77.111781    393.54095    33383          447 
  396000    310.94767    -80.39005     408.4222    33377          441 
  397000    286.90719   -96.867583    398.05592    33402          466 
  398000    297.40131   -97.682024     433.0216    33424          488 
  399000    276.83681   -95.739212    380.54484    33398          462 
  400000    285.48437   -93.241752    391.53973    33397          461 
  401000     290.3823   -97.467251     370.2421    33364          428 
  402000    300.75573   -96.922251     408.9627    33393          457 
  403000    292.47668   -92.840959     415.6437    33413          477 
  404000    291.82526   -75.954548    417.50494    33416          480 
  405000    272.40632    -87.90332    360.67785    33380          444 
  406000    285.10068   -69.809704     349.0734    33347          411 
  407000    305.30386    -78.17784    362.62438    33333          397 
  408000    294.78263   -74.131789    369.67983    33356          420 
  409000    285.31243   -83.678676    369.35656    33371          435 
  410000    313.87282   -88.098571    416.84445    33382          446 
  411000    292.05094   -86.470004    378.12237    33370          434 
  412000    285.10484   -81.314429    372.05356    33373          437 
  413000    279.11179   -69.129959    364.77278    33375          439 
  414000    289.84075   -82.973002    388.03692    33385          449 
  415000    294.70976   -81.936769     369.4241    33356          420 
  416000    269.61443   -80.660386    340.96937    33359          423 
  417000    275.62439   -69.812566    376.64765    33395          459 
  418000    303.07569   -81.313274    395.35231    33374          438 
  419000    306.88177   -87.283594    393.47017    33367          431 
  420000    284.80157   -82.207025    379.75908    33383          447 
  421000     288.9922    -76.08788    358.94966    33353          417 
  422000    277.79671   -76.237557    344.36242    33351          415 
  423000    297.46001    -80.21892    380.99726    33365          429 
  424000    294.45442   -72.411837    390.72657    33380          444 
  425000    288.20007   -76.044571    379.25747    33377          441 
  426000    320.80921   -75.535335    433.05683    33389          453 
  427000    300.96073   -88.856572    434.38484    33421          485 
  428000    270.60831   -87.650461     381.0279    33408          472 
  429000    301.62768   -82.981409    396.48039    33376          440 
  430000    301.64421   -89.078352    385.87185    33366          430 
  431000    280.15429   -91.434886    354.83242    33360          424 
  432000    281.75892   -91.891691    399.86098    33412          476 
  433000    294.55225    -94.38661    403.33245    33396          460 
  434000     302.0296   -90.089663    384.79002    33363          427 
  435000    292.55108   -90.545834    387.10976    33379          443 
  436000    299.56385   -84.441668    397.95369    33382          446 
  437000    304.82945   -84.430765    413.92481    33392          456 
  438000    301.61281   -101.25495    411.02799    33394          458 
  439000    313.90929   -94.939879    432.32164    33398          462 
  440000    288.88626   -94.088314    383.46301    33382          446 
  441000    304.46147   -87.436987    421.52115    33400          464 
  442000    285.36467   -81.721558    406.28153    33411          475 
  443000    291.58593   -87.694684    384.18937    33378          442 
  444000    295.63887   -91.731986    373.84386    33361          425 
  445000    278.67194   -86.575218    365.69119    33376          440 
  446000    301.82338   -83.987274     402.4921    33384          448 
  447000      277.952   -77.708723    369.10768    33381          445 
  448000    296.50692   -86.638299     396.1083    33384          448 
  449000    314.51055   -87.452663    439.18097    33404          468 
  450000    279.96221   -84.295843    378.25761    33389          453 
  451000    273.28641   -82.468676    356.96247    33375          439 
  452000     295.9424    -88.54266    409.74093    33401          465 
  453000    310.68701   -85.444782    414.05663    33384          448 
  454000    298.80281   -78.735501    394.00156    33376          440 
  455000    302.65548   -74.505646    409.50182    33390          454 
  456000    288.23152   -79.270421    373.28706    33371          435 
  457000    289.40813   -79.022598    368.94767    33364          428 
  458000    276.45873   -77.999065    364.01371    33378          442 
  459000    291.39823   -78.857435    401.83861    33399          463 
  460000    296.56482   -70.397195    374.11538    33360          424 
  461000    290.52556   -69.943608    370.02818    33362          426 
  462000    286.78525   -79.522959    358.02463    33355          419 
  463000    294.72861   -77.117429    352.26258    33337          401 
  464000    298.71856   -76.588059    361.69794    33343          407 
  465000    286.91266   -83.595548    369.86017    33369          433 
  466000    294.87607   -81.249955    398.52897    33389          453 
  467000    300.89779   -75.684845    406.73269    33390          454 
  468000    285.88008   -86.178973    403.95608    33410          474 
  469000    297.81774   -99.195636    407.72761    33396          460 
  470000    293.94113   -89.063615    418.07171    33413          477 
  471000     294.1276   -88.768185     391.0232    33380          444 
  472000    293.81078   -79.309417    394.88489    33386          450 
  473000    295.37522   -89.250818    435.61308    33428          492 
  474000    315.67845   -86.198927    373.77656    33333          397 
  475000    303.99446   -93.867207    397.18431    33374          438 
  476000    291.77341   -94.865489    396.81133    33392          456 
  477000       287.76    -89.17595    381.15205    33381          445 
  478000     304.7527   -89.550621    405.22982    33382          446 
  479000     283.6366   -91.634189     393.1777    33402          466 
  480000     279.8419   -95.148016    351.69076    33357          421 
  481000    310.19557   -85.431913    354.26491    33320          384 
  482000    286.08987   -72.214974    353.34392    33351          415 
  483000    302.54694    -62.94931    381.42729    33357          421 
  484000    304.81508   -70.761542    372.89219    33347          411 
  485000    298.01114   -81.063469    382.86212    33367          431 
  486000    273.17967   -76.220414    337.41328    33350          414 
  487000    307.31891   -72.282605    382.35879    33353          417 
  488000    271.08886   -78.224582     366.9476    33388          452 
  489000     300.3351   -80.150098    406.58876    33390          454 
  490000    292.63363   -79.657249    382.56181    33374          438 
  491000    283.07865   -66.923901    355.40158    33358          422 
  492000    299.07759   -72.726207    375.96116    33358          422 
  493000     291.5418   -79.955504    403.60482    33401          465 
  494000    303.15342   -79.300525    392.58304    33371          435 
  495000    314.87039   -77.937334    407.42471    33371          435 
  496000    276.14446   -73.492908    368.25351    33381          445 
  497000     285.9449   -72.916129    372.07433    33373          437 
  498000    293.47569   -65.293314    368.11256    33357          421 
  499000    295.47521   -65.112595    371.86127    33359          423 
  500000    303.71398   -74.974039    354.82204    33328          392 
  501000    305.70833   -68.076782    364.43746    33334          398 
  502000      302.083   -72.189928    383.17383    33362          426 
  503000    286.89599    -80.17984    396.73327    33400          464 
  504000    285.71498   -80.345324    396.41638    33401          465 
  505000    292.78759   -84.172849    393.73963    33387          451 
  506000    276.48781   -81.238446    366.00858    33380          444 
  507000    289.38763   -82.601067    384.23338    33382          446 
  508000     270.5398   -67.504676    336.79436    33354          418 
  509000    310.64875   -65.986336    387.20085    33355          419 
  510000    291.19626   -65.609999    389.05175    33384          448 
  511000    285.76838    -73.26089    376.09842    33377          441 
  512000    287.06563   -80.370231    377.62615    33378          442 
  513000    296.00043   -74.434171    383.36061    33371          435 
  514000    290.24202    -76.17901    378.40042    33374          438 
  515000    295.06842   -71.494563    365.91384    33349          413 
  516000    284.76096   -70.786016    360.05544    33360          424 
  517000    305.52495   -76.763968    388.93675    33363          427 
  518000    298.74299   -66.564477    381.60999    33363          427 
  519000    298.66193   -72.183631    374.37319    33357          421 
  520000    299.67775   -70.493147    394.40025    33378          442 
  521000     295.4248   -78.895244    370.93417    33358          422 
  522000    295.99857   -68.432945    385.50223    33373          437 
  523000    286.35207    -70.82863    374.64821    33375          439 
  524000    285.09735   -70.990645    365.50132    33365          429 
  525000    278.37999   -84.924101    358.46353    33368          432 
  526000    278.26251   -82.824729    371.47992    33384          448 
  527000    293.69002   -82.318838    387.06374    33376          440 
  528000     317.1817   -84.283509     403.6124    33363          427 
  529000    285.84208   -75.026844     363.5112    33362          426 
  530000    296.29659    -77.89082    361.34367    33346          410 
  531000    294.00671   -68.331991    390.99617    33382          446 
  532000     268.8954   -74.351166    334.24405    33352          416 
  533000    294.02421   -82.733287    380.03085    33369          433 
  534000    315.37257   -68.830411    394.02658    33356          420 
  535000    290.41326   -72.025531    341.97885    33332          396 
  536000    284.36306   -73.733177    359.87242    33361          425 
  537000    281.79979   -67.407441    366.09011    33372          436 
  538000    278.74236   -73.674995    353.62346    33362          426 
  539000    289.79881   -73.513648    347.25573    33336          400 
  540000    298.68865   -66.748594    358.85937    33340          404 
  541000    290.72975   -71.764364    365.89754    33359          423 
  542000    302.55896   -73.587261    380.47922    33358          422 
  543000    304.48106   -77.876496    410.87345    33389          453 
  544000     291.3417   -81.820709    389.69452    33384          448 
  545000    302.90424   -84.208014    400.89371    33376          440 
  546000    300.41787   -81.235876    385.93863    33367          431 
  547000    303.75503   -85.677364    390.14654    33366          430 
  548000     301.7979   -71.258813    419.97402    33403          467 
  549000    282.06186   -81.707349     396.5995    33406          470 
  550000     280.5889   -81.796841    345.11637    33349          413 
  551000    312.08435   -81.624039    391.18165    33357          421 
  552000    288.33238   -83.618863    360.11519    33354          418 
  553000    287.65579   -73.308521     382.1691    33380          444 
  554000    307.97121   -69.678039    393.54158    33365          429 
  555000     309.6349   -83.692712    388.97288    33358          422 
  556000    279.21339   -72.027585    354.61796    33363          427 
  557000     283.2626   -72.593174    328.49384    33325          389 
  558000    296.67445   -75.852199    378.09608    33364          428 
  559000    305.26192    -72.93607    386.81051    33362          426 
  560000    307.22939   -80.806625    407.66485    33380          444 
  561000    284.32495   -76.050015    349.65047    33349          413 
  562000    288.76284   -78.853984    380.12846    33377          441 
  563000    290.54732   -88.740936     374.3316    33369          433 
  564000    290.97776   -88.668692    412.49187    33411          475 
  565000    304.67071   -87.087374    440.92747    33422          486 
  566000    278.85747   -87.018157    373.73773    33384          448 
  567000    304.91793   -83.198487    412.41438    33390          454 
  568000     305.8757   -80.730537    369.79728    33342          406 
  569000    278.85986   -76.398581     343.5821    33350          414 
  570000    284.24078   -72.608323    382.89448    33388          452 
  571000    294.16806   -84.251429    390.07898    33381          445 
  572000     285.1779   -85.440516     386.1555    33391          455 
  573000    277.89597   -86.592134    360.48965    33372          436 
  574000    292.20323   -82.005638    393.44256    33387          451 
  575000    293.09846   -83.767167    361.37777    33350          414 
  576000    306.92977   -77.553231    416.47543    33391          455 
  577000    279.59581   -83.421349    364.74206    33374          438 
  578000    308.77169   -85.892511    410.73091    33383          447 
  579000    301.04847   -77.103653    382.50842    33362          426 
  580000     295.1953   -77.829878    391.79302    33381          445 
  581000     300.3931   -86.632428    405.74416    33389          453 
  582000    287.88578   -82.852646    412.24866    33416          480 
  583000    295.26534    -84.45976    391.68056    33379          443 
  584000    298.93719   -80.718877    383.16969    33365          429 
  585000     289.6796   -68.866634    365.39803    33358          422 
  586000    298.09154   -84.436468     394.5371    33379          443 
  587000    274.96579   -87.083957    338.53308    33348          412 
  588000    285.32954   -76.160326    365.67933    33366          430 
  589000    287.61055   -74.024943    358.03291    33354          418 
  590000    267.17719   -71.333041    354.33143    33379          443 
  591000    296.32279   -84.865452    398.53223    33387          451 
  592000    290.92069   -83.914593    373.46964    33367          431 
  593000    308.44248   -79.603708    390.32736    33359          423 
  594000     283.3821   -72.790227    349.04469    33350          414 
  595000    307.29489   -83.749755    424.23633    33400          464 
  596000    304.61749   -80.943128      390.962    33367          431 
  597000    292.91616   -86.437202    409.99704    33406          470 
  598000    281.88796   -82.927105    406.13264    33420          484 
  599000      308.435   -84.819237    449.25141    33424          488 
  600000    285.01258   -98.285778    397.62206    33404          468 
  601000    278.60862   -81.521846    374.36155    33387          451 
  602000    286.00415   -81.994633    399.50315    33404          468 
  603000    278.29891   -76.396649    368.44159    33380          444 
  604000    288.46801   -84.273699    414.00366    33418          482 
  605000    272.92545   -83.620447     399.8546    33427          491 
  606000    291.61283   -90.923019    414.05661    33413          477 
  607000    289.64427   -96.536611    397.93996    33397          461 
  608000    288.19141    -76.36244    385.34358    33384          448 
  609000    279.41661   -77.701533    368.56105    33379          443 
  610000    287.03554   -71.283265    379.58298    33380          444 
  611000    300.28024   -79.636917    396.38744    33379          443 
  612000    309.89702   -72.299254    393.15263    33362          426 
  613000    289.52904   -72.896749    370.12526    33364          428 
  614000     276.0398   -76.203148    375.60891    33393          457 
  615000    283.59385   -68.960694     375.9292    33380          444 
  616000    288.52974   -68.330358    372.96532    33368          432 
  617000    291.59385   -83.292137    383.97751    33378          442 
  618000    301.22068   -66.628385    378.77263    33358          422 
  619000    289.36437   -68.964314    363.74697    33358          422 
  620000    273.56478   -62.482178    344.25407    33359          423 
  621000    307.24472   -70.292017    397.13979    33370          434 
  622000    304.73749   -75.269503    398.40747    33375          439 
  623000     282.5757    -60.47801    362.19543    33367          431 
  624000    292.99592   -58.336427    366.35024    33356          420 
  625000    294.56887   -57.339412     338.6984    33321          385 
  626000    286.52002   -64.764768    339.10089    33334          398 
  627000    282.29805   -75.271021    344.37727    33345          409 
  628000     277.4653    -72.52488    366.85685    33379          443 
  629000    293.73447   -78.423362     369.3051    33357          421 
  630000    302.97781   -79.658091    403.29866    33383          447 
  631000    278.73524   -72.079354    345.75453    33352          416 
  632000    302.46304   -70.401467    402.67257    33383          447 
  633000    289.90657   -72.512221    373.64877    33369          433 
  634000    273.75228   -62.750383    341.92349    33354          418 
  635000    290.19384   -68.381419    363.53258    33356          420 
  636000    291.15849   -58.673781    375.55035    33368          432 
  637000    282.76453    -55.10033    361.75799    33366          430 
  638000    297.00903   -65.881768    396.46524    33384          448 
  639000    300.37331   -59.832673      366.499    33345          409 
  640000    301.41256   -53.573587    361.99207    33339          403 
  641000    284.51774    -66.09226    348.03132    33346          410 
  642000    314.62558   -62.318688    396.49062    33359          423 
  643000     321.3761   -67.939819    421.36188    33376          440 
  644000    267.10915    -67.85258    357.05606    33384          448 
  645000    290.05327   -67.661582    385.31578    33382          446 
  646000    314.41669    -65.98389     372.4413    33334          398 
  647000    289.57749   -72.014918    345.23878    33336          400 
  648000    294.44395   -63.602698    360.13247    33347          411 
  649000    281.35643   -71.914986    362.00594    33368          432 
  650000     288.5333   -65.523422    377.68379    33375          439 
  651000    289.11216   -71.876842    372.72071    33368          432 
  652000    294.36179   -76.437873    375.22827    33363          427 
  653000    284.46211   -77.566428    364.90075    33366          430 
  654000    281.49725   -62.767079    359.50847    33361          425 
  655000    274.50685   -70.665876    361.12423    33378          442 
  656000    270.70367   -75.784171    358.74743    33379          443 
  657000    300.09429   -79.861178    403.40785    33387          451 
  658000    295.20998   -76.834756    387.50084    33377          441 
  659000    287.30027   -77.412672     361.7502    33359          423 
  660000    304.24379   -76.495753    388.03257    33364          428 
  661000    284.83079   -71.490379    339.82688    33337          401 
  662000    297.79967   -72.889126    386.05532    33370          434 
  663000    299.85028   -76.879115    379.26319    33360          424 
  664000    291.38583   -68.394729    360.47656    33352          416 
  665000    272.22967   -65.919464    345.45439    33361          425 
  666000     284.6748   -54.232206    360.34111    33361          425 
  667000    292.10619   -66.467091    357.92834    33348          412 
  668000    288.09224    -64.88175    359.65389    33355          419 
  669000    297.54456   -67.802659    391.23967    33378          442 
  670000    291.52936   -68.806906    388.05341    33383          447 
  671000    280.08845   -64.967977    340.29698    33343          407 
  672000    290.14603   -63.597438    369.24786    33363          427 
  673000    289.73824    -67.59953    362.13761    33355          419 
  674000    298.32942   -65.959619    373.34707    33356          420 
  675000    301.51886   -62.503862    370.06343    33348          412 
  676000    282.52219   -66.552856    357.14017    33361          425 
  677000    306.67671   -79.477647    417.11549    33391          455 
  678000     302.8829   -75.263342    377.51676    33353          417 
  679000    305.99727   -75.033666    405.90959    33381          445 
  680000    299.55744   -86.018337    414.80288    33400          464 
  681000    312.05551    -67.70369    407.28892    33374          438 
  682000    295.14782   -75.249169    396.27953    33387          451 
  683000    294.92236   -68.277065    370.74339    33358          422 
  684000    278.70986   -68.086575    376.94627    33389          453 
  685000    303.74066   -70.199973    421.45263    33402          466 
  686000     283.6257   -64.087512    386.24713    33392          456 
  687000    291.06924   -76.482882    379.33454    33374          438 
  688000    291.10267   -73.705934    375.90035    33370          434 
  689000    299.42939   -79.431389    400.18221    33385          449 
  690000    291.25712   -68.237002    395.91169    33392          456 
  691000    310.39057   -69.160359    415.67358    33385          449 
  692000    292.84891   -69.716374    371.42777    33361          425 
  693000    291.30968   -58.204569     360.1291    33350          414 
  694000    296.89454   -72.635714    378.10159    33362          426 
  695000      286.229   -67.251859    350.82407    33348          412 
  696000    297.17544   -68.183486    384.65074    33371          435 
  697000    305.87374   -56.041853    370.64543    33343          407 
  698000     302.9908   -71.552693    421.77632    33403          467 
  699000    290.09743   -65.338658     387.8379    33385          449 
  700000    311.05288   -72.870105     397.7837    33366          430 
  701000     289.1499    -71.06191    378.98643    33376          440 
  702000    302.34751   -67.670102    379.26085    33356          420 
  703000    298.00567   -57.035713    359.16488    33340          404 
  704000    267.75985   -71.381832    359.78453    33387          451 
  705000    316.98797   -70.904506    410.92072    33371          435 
  706000    291.46471   -72.306533     381.8382    33375          439 
  707000     283.5047    -68.71095    368.03877    33372          436 
  708000    296.11194   -74.463726    367.45476    33351          415 
  709000    281.30837   -71.018931    356.63227    33361          425 
  710000    280.11001    -80.84305     361.9441    33370          434 
  711000    284.54047     -85.0327    362.27993    33364          428 
  712000     280.1873   -69.635852    378.05471    33389          453 
  713000    305.04365   -85.577241    409.53943    33387          451 
  714000     272.8292   -86.378855    393.04185    33420          484 
  715000    294.17256   -86.954135    393.04982    33384          448 
  716000     320.3026   -91.857289    432.57543    33389          453 
  717000     281.3096   -89.790171    369.38768    33377          441 
  718000    273.03196   -85.384219    360.75445    33380          444 
  719000    275.48632   -88.444552    373.64223    33391          455 
  720000    295.33243   -84.778256    406.91454    33399          463 
  721000     293.4589   -74.947509    385.86861    33378          442 
  722000    310.16553   -79.064649    400.53357    33370          434 
  723000    280.02958   -80.841896    372.46819    33380          444 
  724000    272.77183    -87.32398    356.44978    33375          439 
  725000    306.67538    -71.20958    404.27853    33379          443 
  726000     290.8672   -77.707274    355.09031    33346          410 
  727000    279.14463   -74.421577    360.37925    33369          433 
  728000    289.17171   -77.088426    384.49304    33381          445 
  729000    287.61717   -78.913188    394.69432    33397          461 
  730000    307.90128   -69.120606    413.90105    33386          450 
  731000    292.35673   -62.449095    415.33049    33413          477 
  732000    297.22231   -63.781205    376.63259    33360          424 
  733000    284.85253   -67.019974     382.0743    33386          450 
  734000    286.81817   -80.455654    371.23515    33371          435 
  735000    299.08824    -74.47284    356.24546    33336          400 
  736000    288.91412   -70.413546    363.96104    33359          423 
  737000    269.05045   -81.595615    346.17392    33368          432 
  738000      304.083   -78.619243    379.91446    33356          420 
  739000    290.54606   -80.130749    383.54191    33379          443 
  740000    258.79135    -83.73662    351.82705    33392          456 
  741000    285.80856   -72.989911    388.18016    33392          456 
  742000    303.87906   -85.291684    412.73071    33392          456 
  743000    283.75991   -82.670492    380.03451    33386          450 
  744000    300.88216   -87.214316    384.42713    33365          429 
  745000    309.85118   -88.606712    408.56963    33379          443 
  746000    309.02201   -74.672233    405.31788    33377          441 
  747000    315.51499   -77.772855    415.11553    33377          441 
  748000     284.4657   -79.837905    373.84684    33377          441 
  749000    298.63561   -89.483243    391.18699    33375          439 
  750000    287.82112    -83.62217    383.53777    33382          446 
  751000    301.79354   -80.897528    386.54587    33366          430 
  752000    291.28487   -84.398297     371.7551    33365          429 
  753000    289.98594   -78.936817    376.27933    33372          436 
  754000    288.09474   -81.786488    369.94834    33367          431 
  755000    258.61729   -75.431932     325.8831    33359          423 
  756000    297.65629   -85.197054    395.84556    33382          446 
  757000    298.41748   -80.291891    372.26392    33355          419 
  758000    290.37913   -80.783098    355.03205    33345          409 
  759000    285.09713   -80.032909    374.45183    33376          440 
  760000    298.92913    -82.43624    373.54792    33356          420 
  761000    295.72512   -87.082466    388.89209    33376          440 
  762000    285.08634   -78.321889    378.42646    33379          443 
  763000    291.81671   -82.377277    376.08167    33368          432 
  764000    266.70116    -85.18355    352.70055    33380          444 
  765000    287.65681    -69.50635    363.26638    33359          423 
  766000    267.32586   -89.518966     344.7756    33366          430 
  767000    290.40002   -81.259107    368.66763    33362          426 
  768000    273.07375   -81.539281    371.24639    33393          457 
  769000    275.47286   -86.150241     378.0426    33397          461 
  770000    278.24113    -83.89042    374.04088    33387          451 
  771000    302.11293   -79.730275    374.94155    33352          416 
  772000    284.84793   -77.465116    353.37795    33350          414 
  773000    316.40867   -67.374534    410.57346    33372          436 
  774000    302.67551   -74.706485    404.76292    33385          449 
  775000    290.10103   -72.323416    356.74275    33349          413 
  776000    283.11992   -69.424437    383.68556    33391          455 
  777000    318.22748   -78.253158    422.71362    33382          446 
  778000    303.08441   -74.496928    395.76699    33375          439 
  779000    305.03024   -68.860045    420.65242    33398          462 
  780000    280.39146   -63.982969    347.54209    33352          416 
  781000    290.98367   -66.081254    363.05018    33355          419 
  782000    275.77342   -68.280957    320.10418    33326          390 
  783000    294.58511   -61.263444    359.97158    33346          410 
  784000    286.21519   -74.076319    347.46751    33342          406 
  785000    292.13707   -61.068316    350.94103    33339          403 
  786000    283.75629   -59.045715    376.40471    33381          445 
  787000    298.89454   -67.704414    374.84689    33356          420 
  788000    308.92507   -67.854729    414.09731    33386          450 
  789000    297.58609   -70.220841    376.60745    33361          425 
  790000     273.9505   -71.465915     355.1413    33371          435 
  791000    275.86018   -80.705436    385.60133    33405          469 
  792000    301.45995   -88.098183    409.23684    33392          456 
  793000    313.39637   -70.906758    406.47008    33370          434 
  794000    288.40798   -75.488094    377.67749    33376          440 
  795000    296.46971   -82.649073    376.62013    33362          426 
  796000     271.3678   -93.484736    367.13109    33389          453 
  797000    298.88388    -79.08754    409.05853    33396          460 
  798000    301.06037   -81.828132    402.10379    33385          449 
  799000    288.06061   -73.330138    389.13944    33388          452 
  800000    298.87394    -77.93669    390.22159    33374          438 
  801000    293.41945   -80.974859    387.99171    33379          443 
  802000    280.68831   -80.363603    371.16988    33380          444 
  803000    313.77945   -77.102484    400.03728    33364          428 
  804000    285.78436    -69.58609    361.44201    33361          425 
  805000    283.32388   -76.370663    363.57219    33367          431 
  806000    296.17842   -81.959339    390.81556    33378          442 
  807000    307.49947   -82.001857    402.64182    33376          440 
  808000    301.72876   -80.134579    398.73267    33380          444 
  809000     288.9076   -87.880241    414.55354    33417          481 
  810000     272.4765   -89.469354    376.55899    33400          464 
  811000    309.29275   -86.294874     461.6211    33436          500 
  812000    291.58827   -95.107605    414.00555    33413          477 
  813000    301.99154   -95.364465    424.18402    33408          472 
  814000    290.12277   -91.766085    381.62636    33377          441 
  815000    292.70808    -79.40359    388.56717    33382          446 
  816000    308.50301   -84.153527    408.62448    33381          445 
  817000    297.02473    -77.36792    408.67133    33398          462 
  818000    294.05192   -83.881139    382.40183    33373          437 
  819000    291.53965   -81.085807    393.09443    33388          452 
  820000    273.82567   -68.047343    336.88754    33349          413 
  821000    283.72469   -68.065027    352.63466    33353          417 
  822000    292.11362   -67.952245    401.54969    33398          462 
  823000    291.45846   -66.269837     373.1898    33365          429 
  824000     280.6008   -76.663426    367.81704    33374          438 
  825000     303.0606   -67.510202    386.05683    33364          428 
  826000    284.31248   -68.257522    341.69072    33340          404 
  827000    290.07034   -72.636949    383.61049    33380          444 
  828000    289.49662   -69.569578    393.59258    33393          457 
  829000    300.21257   -73.685062    392.53378    33374          438 
  830000    297.39604   -78.733312    384.72506    33366          430 
  831000    294.67564   -91.992113    398.15752    33389          453 
  832000    292.00366   -86.938871     392.7663    33388          452 
  833000    281.51437   -88.048772    384.93746    33395          459 
  834000    309.84753   -84.585578    412.91586    33384          448 
  835000    291.20659   -92.651177     401.1049    33398          462 
  836000    280.98606   -86.900311    375.63685    33385          449 
  837000    277.87202   -80.966583    363.30237    33374          438 
  838000    281.63718   -85.138984     378.1877    33386          450 
  839000    289.86701   -90.489587    395.26121    33392          456 
  840000     304.5671   -85.800995    424.26492    33403          467 
  841000    286.34526   -72.037361     384.4658    33387          451 
  842000    295.92129   -75.706063    393.01367    33382          446 
  843000    301.14609   -75.537655    389.53168    33370          434 
  844000    292.28277   -81.656296    381.86356    33375          439 
  845000      284.521   -85.354015    357.25711    33354          418 
  846000    283.99551   -87.442213    372.70952    33376          440 
  847000    314.54193   -74.388931    406.40177    33369          433 
  848000    288.50029   -68.528247    365.93832    33359          423 
  849000    291.74841   -63.861796    328.97025    33314          378 
  850000    293.00525   -59.238733    341.86644    33328          392 
  851000    268.65089   -51.700651    343.07157    33364          428 
  852000    296.77751   -62.863262    340.03467    33320          384 
  853000    297.13291   -59.434779    354.61565    33336          400 
  854000    313.95889   -71.279682    403.70654    33368          432 
  855000    320.24274    -76.08473     432.9293    33388          452 
  856000    286.85193    -68.19956    385.83514    33387          451 
  857000    289.41963   -64.034626    370.26267    33366          430 
  858000    283.34235    -58.00301    356.39992    33358          422 
  859000    322.93223   -58.404789    381.72323    33333          397 
  860000    295.59311   -57.850521    374.09233    33361          425 
  861000    286.72852   -68.993025    333.31887    33326          390 
  862000    287.44499   -77.466533    364.48724    33358          422 
  863000    298.20465   -68.209955    391.62747    33377          441 
  864000    292.45558   -71.880971    398.69848    33394          458 
  865000    276.33563   -71.836328    377.31446    33395          459 
  866000    288.32266   -69.868309    386.33813    33386          450 
  867000    299.54431   -77.087319       405.67    33390          454 
  868000    292.47019    -67.58235    403.67109    33400          464 
  869000    291.00669   -80.969291    386.71528    33382          446 
  870000    303.51225   -83.418758    392.21399    33369          433 
  871000    312.36422   -87.099334    423.12589    33391          455 
  872000    299.57288   -82.746816    415.08974    33401          465 
  873000     312.3871   -80.850884    424.92377    33393          457 
  874000    304.69777   -79.106806    413.30012    33391          455 
  875000    271.54407   -79.486172    357.28208    33378          442 
  876000    281.61581   -80.931305     371.1661    33379          443 
  877000    293.67279   -81.887892    400.81219    33394          458 
  878000    288.93771   -77.984632    396.90417    33397          461 
  879000    302.43159   -78.136129    388.64447    33367          431 
  880000    278.30515   -83.681798    358.75217    33368          432 
  881000    275.10123   -78.703138    366.14922    33381          445 
  882000     289.3514   -73.627406    396.78117    33396          460 
  883000    302.30735   -83.101217    395.17797    33375          439 
  884000    299.01193   -80.228399    401.32794    33386          450 
  885000    294.19179    -73.09892    415.73159    33408          472 
  886000    301.36203    -64.49496    405.52673    33388          452 
  887000    290.44303   -64.907929    379.67568    33375          439 
  888000    307.58339   -71.574346    407.31839    33381          445 
  889000    275.09844    -60.89837    343.38729    33355          419 
  890000    284.32682   -70.819554    347.13809    33346          410 
  891000    302.62378   -58.218979     410.3367    33391          455 
  892000    285.05873    -59.06573    356.92029    33355          419 
  893000    293.20342   -63.792408    372.67334    33362          426 
  894000    293.23839   -64.436008    370.86939    33361          425 
  895000    297.61029   -66.216319    370.18239    33354          418 
  896000    291.55035   -61.150243    352.98688    33343          407 
  897000    288.99024    -63.65307    364.62036    33360          424 
  898000    303.33001   -68.836856    377.39484    33354          418 
  899000    292.83372   -62.915924    346.24597    33333          397 
  900000    282.89345   -66.560203     368.9249    33374          438 
  901000    303.17467   -68.538637    386.08062    33363          427 
  902000    296.16804   -58.912768    366.96308    33352          416 
  903000    293.34749   -69.648088     379.8517    33371          435 
  904000    293.49757   -59.713773    390.42373    33383          447 
  905000    302.85267   -61.632255    396.37434    33375          439 
  906000    276.78007   -67.490664    367.40822    33381          445 
  907000    309.34571   -71.892375    402.22962    33373          437 
  908000    282.18598   -72.424603    344.66762    33344          408 
  909000    296.74675   -78.821475    363.42522    33347          411 
  910000    309.50127   -72.966389    381.37645    33350          414 
  911000    279.24553   -66.519935    361.81092    33370          434 
  912000    316.07941   -77.664055     400.1204    33361          425 
  913000    288.17231   -76.435611     399.0791    33400          464 
  914000    281.92314   -72.339607    385.45011    33394          458 
  915000     293.2189   -74.880612    397.04276    33390          454 
  916000    281.53292   -70.353781    359.40717    33365          429 
  917000    308.45903   -70.390202    396.95758    33368          432 
  918000    268.21532    -68.92308    334.80741    33355          419 
  919000    286.65971   -78.837273    360.19865    33358          422 
  920000    293.08458    -68.58242    363.92202    33353          417 
  921000     297.0909   -63.815592    353.28575    33335          399 
  922000    289.46341   -60.710864    366.38865    33360          424 
  923000    290.33633    -66.46282    354.08842    33344          408 
  924000    305.54309   -74.751608    409.92227    33387          451 
  925000    294.57855   -70.966915    418.83486    33411          475 
  926000     285.4056   -73.790533    387.79156    33392          456 
  927000    313.96069   -70.116224      385.836    33348          412 
  928000    280.78904   -68.520093    337.36128    33340          404 
  929000    294.61701   -74.024767    352.23355    33337          401 
  930000    314.87811   -78.906043    413.33763    33377          441 
  931000    292.75196   -74.152836    391.63882    33385          449 
  932000    269.14571   -83.706663    373.85778    33402          466 
  933000    306.28181   -68.570113    383.68724    33356          420 
  934000     285.4019   -73.247625    350.21083    33346          410 
  935000    288.20357   -83.772252    399.69469    33400          464 
  936000    289.07647   -87.163704    400.10973    33401          465 
  937000    299.90866   -88.731005    403.92195    33388          452 
  938000    286.59922    -85.87458    392.29459    33394          458 
  939000    291.72643   -89.467877    379.04791    33371          435 
  940000    288.10319   -87.991648    365.84237    33362          426 
  941000    286.48378   -75.112099    368.26751    33368          432 
  942000    275.28074   -82.097286    381.02958    33400          464 
  943000    315.58808   -77.967413    443.10645    33407          471 
  944000    291.67504   -79.253055    379.51057    33373          437 
  945000    298.85014   -86.758711    372.85066    33355          419 
  946000    294.23562   -89.627521    393.94274    33386          450 
  947000    296.74217   -87.087008     399.1194    33388          452 
  948000    305.14517   -81.681533    369.44498    33343          407 
  949000    305.24267   -82.234582    408.97062    33385          449 
  950000    293.20419   -86.188687    401.29749    33396          460 
  951000     290.3516   -94.018291     407.9266    33408          472 
  952000    279.97939   -82.175916    396.73038    33412          476 
  953000    293.28743   -85.754881    423.35511    33420          484 
  954000    303.76581     -90.3735    389.52946    33367          431 
  955000    279.47035   -76.517277    363.21301    33373          437 
  956000    283.67103   -81.476517    373.41116    33377          441 
  957000     296.4357   -87.866115    387.75373    33375          439 
  958000    295.79866   -101.03386    405.73358    33397          461 
  959000    289.86033   -89.402098    378.02175    33374          438 
  960000     288.4854   -83.689794    408.67614    33411          475 
  961000    290.60458   -84.803454    397.45518    33395          459 
  962000    294.01554   -89.978045    404.31983    33398          462 
  963000    282.58928   -82.217264    371.55645    33378          442 
  964000    290.96398    -79.23366    369.69815    33363          427 
  965000    309.88686   -79.567486    407.54341    33378          442 
  966000    298.90947   -81.596614     370.0324    33352          416 
  967000    280.87175   -80.446207    353.19894    33356          420 
  968000    294.46215   -81.069324    389.19175    33380          444 
  969000    305.05039    -83.79972    401.59738    33378          442 
  970000     301.6039   -73.652217    393.90821    33374          438 
  971000    308.79405   -77.276548    399.17118    33370          434 
  972000     296.9743   -61.529037    371.90211    33357          421 
  973000    269.05446   -61.906396    334.90755    33353          417 
  974000    296.09277   -65.828359    350.71179    33334          398 
  975000    288.99115   -61.631893    355.52283    33349          413 
  976000    282.99811     -73.3091    348.80059    33349          413 
  977000    281.15374   -68.920469    359.75238    33366          430 
  978000    270.74576   -73.460948    352.73399    33374          438 
  979000    292.67318   -66.465771    371.24038    33362          426 
  980000    285.19388   -70.628136    362.60524    33362          426 
  981000    307.06673   -72.680823    388.54104    33361          425 
  982000    318.38668   -66.138224    386.49475    33343          407 
  983000    300.68316   -71.507988    388.09892    33369          433 
  984000    310.17899   -67.898717    424.98811    33396          460 
  985000    311.56754   -78.699733    393.28259    33359          423 
  986000     284.0316   -68.626759    400.74204    33410          474 
  987000    282.06835   -71.333164    389.08675    33399          463 
  988000     270.1118   -74.577373    375.43314    33403          467 
  989000    301.63056   -70.112237    395.78574    33377          441 
  990000    300.67352   -72.825551    376.23028    33356          420 
  991000    294.23784   -66.895669    356.92324    33343          407 
  992000    298.39018   -59.590453    383.27035    33367          431 
  993000     289.9865    -64.50341    377.61102    33373          437 
  994000    291.46389   -67.715874    365.38946    33357          421 
  995000    286.23755    -65.36067    359.38553    33358          422 
  996000    291.17123   -66.669279    373.04591    33366          430 
  997000    275.05818   -74.804024    346.74392    33359          423 
  998000    304.90926   -76.116684    394.66172    33371          435 
  999000    282.55449   -83.677259    359.39467    33363          427 
 1000000    294.11741   -73.901218    380.75968    33370          434 
Loop time of 7802.11 on 5 procs for 1000000 steps with 33370 atoms

Performance: 11.074 ns/day, 2.167 hours/ns, 128.170 timesteps/s
99.5% CPU use with 5 MPI tasks x no OpenMP threads

MPI task timing breakdown:
Section |  min time  |  avg time  |  max time  |%varavg| %total
---------------------------------------------------------------
Pair    | 218.2      | 288.82     | 337.54     | 235.4 |  3.70
Neigh   | 3405.3     | 4223.3     | 4748.3     | 753.2 | 54.13
Comm    | 628.39     | 1114       | 2003.8     |1490.4 | 14.28
Output  | 0.15361    | 0.16546    | 0.20892    |   5.3 |  0.00
Modify  | 2012.9     | 2066.5     | 2173.1     | 125.8 | 26.49
Other   |            | 109.3      |            |       |  1.40

Nlocal:    6674 ave 6762 max 6567 min
Histogram: 2 0 0 0 0 0 0 1 1 1
Nghost:    16988.6 ave 17213 max 16611 min
Histogram: 1 0 0 0 0 1 1 0 1 1
Neighs:    13568.2 ave 16304 max 10892 min
Histogram: 1 0 1 0 0 1 0 1 0 1

Total # of neighbors = 67841
Ave neighs/atom = 2.03299
Neighbor list builds = 47338
Dangerous builds = 0

compute		pe ggcmc pe/atom
variable	      x atom c_pe

compute         layers ggcmc chunk/atom bin/1d z lower 0.1 units box bound z -55 55

fix		4 ggcmc ave/chunk 10 100 1000 layers v_x file profile.density
run               3000000
Per MPI rank memory allocation (min/avg/max) = 6.96 | 6.976 | 6.988 Mbytes
Step c_mtem PotEng KinEng Atoms v_nH2 
 1000000    294.11741   -73.901218    380.75968    33370          434 
 1001000    277.58061   -76.023215    355.12589    33366          430 
 1002000    302.67972   -82.250194    400.08684    33380          444 
 1003000    271.77286   -60.497279    333.80207    33349          413 
 1004000    280.26406   -74.058378    362.00987    33370          434 
 1005000    295.41702   -75.674656    426.97975    33420          484 
 1006000    293.98067   -85.584012    385.99049    33377          441 
 1007000    285.03319   -84.852502    367.69437    33367          431 
 1008000     285.8336   -82.112744    381.95618    33384          448 
 1009000    301.44267    -81.16052    386.67989    33367          431 
 1010000    297.62403   -92.505012    425.36904    33416          480 
 1011000     303.1099   -84.484297    425.65922    33408          472 
 1012000    303.97441   -89.194964    439.52668    33422          486 
 1013000    287.15235   -88.824552     376.8107    33377          441 
 1014000    282.51616   -90.172244    345.59793    33346          410 
 1015000    304.74546   -88.130535    402.22421    33379          443 
 1016000    294.56468   -85.062906    396.10439    33388          452 
 1017000    275.74629    -77.80041    374.26293    33392          456 
 1018000     283.6732   -79.562162    381.97902    33386          450 
 1019000    294.67028   -72.698779    400.24779    33390          454 
 1020000    286.36573   -69.941575    368.76418    33368          432 
 1021000    278.85283   -64.918472     353.0348    33361          425 
 1022000    299.07509   -76.931707    381.96441    33365          429 
 1023000     291.2703   -80.319858    410.35873    33409          473 
 1024000    291.73092   -86.714509    386.02088    33380          444 
 1025000    283.07342   -72.694816    336.93637    33336          400 
 1026000    291.51316   -75.050855    373.32848    33366          430 
 1027000    309.12789   -74.420731    418.38284    33387          451 
 1028000    282.38259   -71.752699    348.90281    33351          415 
 1029000    313.60794    -70.21699    388.15234    33350          414 
 1030000    302.95177   -71.435616    395.54415    33371          435 
 1031000    295.21004    -68.03744    368.21287    33355          419 
 1032000    277.78598   -70.793976    350.76294    33357          421 
 1033000    305.35437    -69.46954      377.638    33351          415 
 1034000    297.10546   -73.932476    379.98613    33366          430 
 1035000    285.28952   -75.545174    388.91063    33394          458 
 1036000    283.31866    -65.79883    371.00211    33376          440 
 1037000    303.46665    -68.85618     383.2405    33360          424 
 1038000    302.37375   -66.202929    379.00044    33356          420 
 1039000    279.10625   -63.903394    363.93779    33373          437 
 1040000    291.96068   -69.122053    358.86533    33348          412 
 1041000    297.45843   -71.473434    376.56517    33359          423 
 1042000    297.16938   -75.529444    373.08725    33358          422 
 1043000    297.22134   -69.795565    397.63581    33385          449 
 1044000    304.23994   -74.184949    393.35237    33368          432 
 1045000    277.82959   -83.800775    389.27395    33406          470 
 1046000    299.88076   -83.769649    397.16849    33381          445 
 1047000    302.50895   -74.992829     410.7877    33391          455 
 1048000    313.98729   -76.906863    448.49871    33416          480 
 1049000    289.68811   -79.880205    370.91798    33366          430 
 1050000     285.6525    -74.60879    355.57389    33354          418 
 1051000    265.45895   -82.921085    319.46934    33340          404 
 1052000    297.55815   -82.314538    401.39383    33388          452 
 1053000    288.90061   -78.638781    397.80547    33398          462 
 1054000    298.15991    -80.01198    400.30644    33387          451 
 1055000    304.86393   -87.584155    406.98101    33383          447 
 1056000     306.6303   -74.032044    396.20081    33369          433 
 1057000    286.38261   -74.052393    361.61538    33360          424 
 1058000    300.63484   -69.727249    369.34583    33348          412 
 1059000    282.87425   -67.357611    363.69559    33367          431 
 1060000    275.92914   -75.939705    369.99598    33386          450 
[...]
 3736000    284.87506   -69.882607     386.5445    33392          456 
 3737000    297.73538   -68.829772    382.93092    33368          432 
 3738000    278.71717   -71.288507    373.19434    33384          448 
 3739000    288.02304   -81.235963    382.81776    33381          445 
 3740000    318.77747   -71.810839    412.57319    33371          435 
 3741000    269.31749   -78.675438    374.91128    33403          467 
 3742000    291.06687   -83.760462    368.42564    33359          423 
 3743000    318.57963   -77.469927    421.82889    33381          445 
 3744000    269.90826   -82.525409    351.76923    33374          438 
 3745000    295.55185    -80.55903    410.99008    33403          467 
 3746000    306.34958   -86.160456    404.59866    33380          444 
 3747000    293.42921   -82.900213    385.00275    33377          441 
 3748000    290.29539   -78.109813    357.91759    33350          414 
 3749000    310.04448   -76.092005    408.75518    33379          443 
 3750000    310.08022   -83.276871    422.69766    33394          458 
 3751000    290.88259   -76.330341     400.1704    33398          462 
 3752000    306.31523   -61.804153    392.40901    33366          430 
 3753000    310.93174    -76.55051    412.08715    33381          445 
 3754000    297.58149    -70.86186    361.07947    33342          406 
 3755000    296.36132   -72.344754    367.80368    33353          417 
 3756000    292.13487   -65.037071    361.70361    33352          416 
 3757000    297.67144   -71.415633    380.89919    33366          430 
 3758000    284.87515   -73.494177    374.42582    33377          441 
 3759000    308.36006   -71.794211    416.52354    33388          452 
 3760000    265.29088   -78.903613    341.75232    33366          430 
 3761000    290.83875   -76.915968    390.84223    33387          451 
 3762000    299.31333   -77.768149    400.93965    33385          449 
 3763000    281.26159   -88.108577    375.89155    33385          449 
 3764000     299.6178   -85.745787    436.94257    33424          488 
 3765000    284.56413   -78.756668    371.88291    33375          439 
 3766000    295.34928   -84.642984    399.37185    33389          453 
 3767000    284.14516   -81.987059    368.73225    33371          435 
 3768000    301.98738   -78.588835    382.99126    33362          426 
 3769000     293.3103    -80.08066    396.26769    33389          453 
 3770000    280.81223   -77.571381    390.42763    33403          467 
 3771000    284.88305   -71.498146    369.77101    33371          435 
 3772000     306.3666   -74.726821     401.5639    33375          439 
 3773000     285.6269   -72.936614    353.47245    33352          416 
 3774000    285.17414   -72.654253    349.16954    33346          410 
 3775000    308.53776   -78.189864    393.28049    33364          428 
 3776000    286.97207   -86.616764    374.46302    33369          433 
 3777000    299.96603   -75.370085    374.36462    33352          416 
 3778000    290.26319   -81.742016    376.94614    33371          435 
 3779000    285.55873   -80.650132    365.64642    33366          430 
 3780000    287.21046   -79.525194    368.61209    33366          430 
 3781000    296.12321   -75.085455    395.91241    33385          449 
 3782000    292.04658   -72.220552    371.80391    33363          427 
 3783000    296.12265   -82.706794    383.33137    33371          435 
 3784000    284.31374   -81.771143    374.04362    33376          440 
 3785000    312.42716   -71.825628    399.36672    33363          427 
 3786000    286.11068   -75.035885    374.39551    33375          439 
 3787000     325.7092    -73.97146    427.61425    33377          441 
 3788000    282.77057   -68.884721    365.65952    33370          434 
 3789000    281.97785   -73.926831      366.959    33371          435 
 3790000    288.77544   -82.838605    396.73726    33397          461 
 3791000     268.7967     -85.5017     351.4588    33375          439 
 3792000    290.13214     -82.6867    405.19532    33405          469 
 3793000    278.79996   -96.050626    393.04317    33409          473 
 3794000    294.79662   -83.469552    392.28428    33383          447 
 3795000    296.76564   -91.392464    394.85969    33383          447 
 3796000    305.79612   -85.748864     418.4255    33395          459 
 3797000    284.75808   -74.766178    373.61778    33375          439 
 3798000    302.75785   -72.655264    379.63816    33357          421 
 3799000    285.44248   -67.125872    397.85002    33403          467 
 3800000    279.90707   -66.450399    393.00726    33406          470 
 3801000    308.08798   -71.432735    386.58899    33355          419 
 3802000    298.55671   -65.636061    372.46734    33355          419 
 3803000    275.02255   -73.397948    389.04113    33408          472 
 3804000    284.27536   -69.599741    397.60008    33406          470 
 3805000    301.38949   -76.541942     413.7148    33397          461 
 3806000    297.68874   -74.191967    383.74666    33368          432 
 3807000    281.72962   -61.635809    353.71944    33357          421 
 3808000    274.86393   -72.133457    374.62396    33394          458 
 3809000    303.47174   -69.677127    387.52355    33363          427 
 3810000    284.24379   -65.370063    348.29962    33347          411 
 3811000    285.81405   -72.166511    365.59731    33364          428 
 3812000    304.09056   -66.781716    391.26298    33368          432 
 3813000    293.63676   -72.269371    393.04638    33386          450 
 3814000    297.88283   -57.895453    358.25176    33340          404 
 3815000    291.93587   -69.128122    380.99988    33373          437 
 3816000    293.71707   -80.663634    422.57664    33419          483 
 3817000    286.87078   -69.726251    380.17762    33380          444 
 3818000    295.90656   -71.170706    375.04458    33361          425 
 3819000    295.99221   -73.208629    393.13916    33380          444 
 3820000    299.43742   -78.741813    414.86394    33401          465 
 3821000    294.92239   -75.679737    404.74819    33397          461 
 3822000    313.87623   -69.180247     415.1336    33380          444 
 3823000     299.3421   -68.248335    390.63284    33374          438 
 3824000    308.06914   -78.526251    374.59741    33344          408 
 3825000     293.1696   -78.390954    380.22236    33371          435 
 3826000    282.66052   -78.174656    370.67346    33376          440 
 3827000    270.92403   -83.104089    359.03376    33381          445 
 3828000    287.15553   -74.443535     396.8827    33400          464 
 3829000    291.50482   -79.454793    383.85106    33378          442 
 3830000    281.03371   -70.768191    376.02514    33384          448 
 3831000    279.97165   -66.070026    345.47004    33350          414 
 3832000    302.74302   -70.735583    392.62934    33369          433 
 3833000    297.46073   -71.047782    373.52206    33358          422 
 3834000    286.13549   -77.555001    392.86327    33397          461 
 3835000    285.07881    -73.32364    367.57501    33369          433 
 3836000    281.15938   -66.501868    356.57004    33362          426 
 3837000    311.58943   -73.046576    406.46544    33372          436 
 3838000    308.85764   -74.658084    378.99737    33348          412 
 3839000    284.15783   -77.502574     370.5676    33374          438 
 3840000    290.74508   -69.253405     387.9664    33384          448 
 3841000    298.71301   -69.615265    382.88787    33366          430 
 3842000    279.24132   -74.549531    372.25859    33383          447 
 3843000    293.12706   -75.863951     398.5159    33393          457 
 3844000     293.6564   -79.048486    369.71984    33359          423 
 3845000    293.36093   -82.573964    381.89805    33372          436 
 3846000    289.71595   -82.343561    371.29003    33366          430 
 3847000    289.24556   -92.650296    363.52144    33358          422 
 3848000    303.22625   -80.655304    396.85762    33376          440 
 3849000    302.61339    -91.01517    411.77816    33393          457 
 3850000    292.55769   -82.734248    410.61683    33407          471 
 3851000    281.92424   -87.956891     372.7859    33380          444 
 3852000    303.15746   -86.727664    390.24727    33368          432 
 3853000    277.00229   -73.032568    344.36353    33354          418 
 3854000    279.44695   -71.503864    362.91415    33372          436 
 3855000    306.43521   -81.556846    402.69363    33377          441 
 3856000    278.24044   -74.543387     346.7148    33355          419 
 3857000    284.67933   -84.385201    371.26869    33371          435 
 3858000    300.86949   -87.477303    411.90404    33396          460 
 3859000     290.1566   -87.903567    401.57919    33400          464 
 3860000    296.03005   -85.870638    408.20455    33399          463 
 3861000    312.31296   -77.598051    409.88126    33377          441 
 3862000    290.53816   -74.889146    383.66321    33379          443 
 3863000    288.77755   -79.000805    382.48157    33380          444 
 3864000    296.82987    -82.59217    394.94009    33383          447 
 3865000    307.59697   -90.384165    409.36695    33383          447 
 3866000     283.2104   -84.456842     397.0506    33406          470 
 3867000    275.52006   -75.709888    363.62913    33379          443 
 3868000    307.86253   -69.951381    369.49619    33339          403 
 3869000    306.57348   -69.832819    380.79635    33353          417 
 3870000     274.7965   -66.925879    360.26824    33374          438 
 3871000    302.24158   -80.613665    408.79752    33390          454 
 3872000     292.1795   -67.963436     392.9289    33388          452 
 3873000    299.91328   -68.536997    380.81532    33362          426 
 3874000    282.01946   -73.666275    349.27289    33351          415 
 3875000    278.83193   -82.610064     365.3037    33375          439 
 3876000    290.07888   -77.100932     354.0338    33346          410 
 3877000    316.73614    -63.53471    408.39193    33369          433 
 3878000    290.30817   -68.293481    371.72473    33364          428 
 3879000    280.30926   -78.483796     392.4598    33403          467 
 3880000    289.51416    -77.86401    388.11318    33386          450 
 3881000    299.32391   -77.115666    387.53642    33370          434 
 3882000     311.4318    -82.76542    411.09235    33379          443 
 3883000    299.85537   -75.483136    389.81202    33373          437 
 3884000    277.44141   -71.835446    348.71835    33357          421 
 3885000    281.66724   -75.201406    365.68605    33371          435 
 3886000    288.88661   -77.472601    373.48852    33370          434 
 3887000    304.85228    -80.18372    420.78029    33400          464 
 3888000    292.20004   -83.639658     378.6489    33371          435 
 3889000     280.7077   -86.158581    362.80629    33370          434 
 3890000    291.64455   -83.221126    416.84947    33416          480 
 3891000    284.42291   -82.531552    388.91406    33395          459 
 3892000    289.66543   -81.499442    377.05741    33373          437 
 3893000    283.03729    -80.33937    371.03001    33375          439 
 3894000    300.76979   -83.028947    386.92479    33368          432 
 3895000    301.89015   -86.040825    374.83349    33353          417 
 3896000    291.95875   -82.549533    362.13649    33352          416 
 3897000    287.75137   -73.130593    360.72249    33356          420 
 3898000    301.09336   -74.333741    402.92335    33385          449 
 3899000    296.98239   -72.784249    371.18798    33356          420 
 3900000    295.92485   -71.305452    377.71712    33357          421 
 3901000    284.20629    -65.57348     349.0887    33348          412 
 3902000    303.27219   -72.133178    377.49637    33353          417 
 3903000    311.98581   -67.574584    402.80767    33368          432 
 3904000    288.76925    -71.99576    378.26269    33376          440 
 3905000    280.56182   -78.667824    374.69341    33384          448 
 3906000    297.28137    -72.85899    404.31108    33393          457 
 3907000    290.99579   -74.645936    405.50149    33402          466 
 3908000    305.54114   -73.064115    414.60479    33390          454 
 3909000    307.02643   -71.893181    388.83246    33361          425 
 3910000     294.0954   -71.294241    367.87086    33356          420 
 3911000    284.27137   -61.788211    334.18398    33330          394 
 3912000    286.45819   -68.117348    376.91318    33377          441 
 3913000    303.54309   -63.935029    402.15688    33380          444 
 3914000    295.94906   -77.294919      366.317    33352          416 
 3915000    295.30661   -75.539448    385.96072    33374          438 
 3916000    278.94877   -77.318959    355.60964    33364          428 
 3917000    305.16927   -76.220004      377.482    33350          414 
 3918000    304.38342   -75.817615    375.82162    33350          414 
 3919000    290.24039    -78.19597    370.03416    33364          428 
 3920000    301.64466   -70.924451    394.32329    33374          438 
 3921000    291.05635   -62.043561    350.66932    33340          404 
 3922000     278.9576   -71.654231    334.57856    33339          403 
 3923000    311.02185   -75.927492    422.28971    33392          456 
 3924000    289.16561   -74.296333    375.96815    33373          437 
 3925000    292.52799   -78.817858    371.76752    33363          427 
 3926000    284.78288    -68.71985    360.19475    33361          425 
 3927000    289.41162   -71.364148    351.93204    33344          408 
 3928000    302.23762   -66.640778    366.71771    33343          407 
 3929000    277.87121   -75.504515    350.77806    33358          422 
 3930000    292.25016   -65.404025    408.07299    33404          468 
 3931000    279.63731   -78.304198    349.50705    33356          420 
 3932000    276.75602   -77.804208    371.26826    33386          450 
 3933000    297.83417   -83.062649    402.20991    33390          454 
 3934000    287.78592   -77.854659    367.27368    33365          429 
 3935000    288.60131   -77.202875    360.01784    33355          419 
 3936000     322.5289   -78.645739    418.40332    33372          436 
 3937000    286.96924   -75.133821     391.2572    33393          457 
 3938000    296.79899    -76.85835    430.42513    33422          486 
 3939000     281.2604   -79.930009    332.74651    33333          397 
 3940000     278.4287   -67.096642    351.44833    33360          424 
 3941000    294.34728   -77.659992    390.27249    33381          445 
 3942000    290.65583   -80.729422    393.41127    33390          454 
 3943000    291.86426   -86.312714    392.08662    33387          451 
 3944000    293.81362   -91.970361    388.02516    33378          442 
 3945000    297.19052   -87.306641    364.66907    33348          412 
 3946000    287.47048   -79.002111    358.45378    33355          419 
 3947000    297.25979   -76.494261    365.44145    33349          413 
 3948000    288.80607   -72.167799    346.41488    33338          402 
 3949000     295.2343   -79.997867     368.0285    33354          418 
 3950000    284.25893   -76.616947     379.7426    33384          448 
 3951000    288.62738     -79.1873    415.46513    33416          480 
 3952000    284.61187    -79.22886    370.48073    33373          437 
 3953000    290.36333    -81.73856    373.08535    33367          431 
 3954000     290.8715   -77.240566    362.94734    33355          419 
 3955000    287.67673   -80.272823    377.63426    33375          439 
 3956000    309.31371   -84.826854    374.10951    33342          406 
 3957000    275.81764   -83.529877    349.67272    33362          426 
 3958000    300.01689    -79.69807    378.58685    33358          422 
 3959000    282.95219   -71.190108    345.18424    33345          409 
 3960000    302.19628   -69.545088    362.20471    33339          403 
 3961000    305.49432   -72.850531    382.85256    33357          421 
 3962000    320.08223   -66.751166    395.89059    33351          415 
 3963000    280.53272   -65.660511      355.414    33362          426 
 3964000    291.56752   -67.256118    337.20735    33324          388 
 3965000    295.49563   -65.622111    353.15443    33337          401 
 3966000    303.65081   -78.196471    390.33785    33367          431 
 3967000    286.53345   -68.257294    360.53643    33357          421 
 3968000    279.10137   -71.476938    358.30071    33367          431 
 3969000    277.35486   -75.520081    375.56059    33390          454 
 3970000    305.84489    -81.96752    406.51958    33382          446 
 3971000    315.44726   -74.248523    417.69859    33380          444 
 3972000    292.85921   -78.778395    377.22722    33369          433 
 3973000    294.65619   -77.468894    362.76775    33349          413 
 3974000     277.6251   -78.440214    386.57903    33404          468 
 3975000    295.53813   -69.609462    397.09458    33386          450 
 3976000    299.23819   -66.473434    397.22518    33380          444 
 3977000    295.84668   -67.066143    385.50845    33373          437 
 3978000    314.89422   -64.949798    376.50639    33336          400 
 3979000    291.62926    -71.08495    361.90185    33353          417 
 3980000    290.46438   -68.439275    371.17525    33365          429 
 3981000    288.61966   -75.381066    368.97143    33363          427 
 3982000    289.33478   -72.838592    368.89752    33363          427 
 3983000    297.31624   -67.826223     397.4564    33378          442 
 3984000    312.62199   -69.946425    394.41367    33359          423 
 3985000    296.17757    -74.99849    378.25154    33364          428 
 3986000    275.64797   -80.395206    358.38033    33373          437 
 3987000    287.82419   -80.976121    378.95491    33378          442 
 3988000    290.63653   -74.704765     367.0948    33360          424 
 3989000    312.41205   -80.748979    404.60758    33371          435 
 3990000    281.44549    -83.38899    362.52723    33369          433 
 3991000    299.77061   -82.962865    414.16825    33399          463 
 3992000    288.62835   -87.877346    383.45018    33382          446 
 3993000    286.98262   -89.141324    381.67564    33382          446 
 3994000    284.80676   -80.165922    379.59191    33383          447 
 3995000    293.73924   -81.568287    380.17592    33371          435 
 3996000    308.56261   -81.370059    381.80092    33352          416 
 3997000    315.59746   -82.421951    426.63523    33390          454 
 3998000    284.72125   -81.821321    347.69414    33344          408 
 3999000    314.37735   -85.898662     420.2061    33384          448 
 4000000    294.88685   -79.486203    415.71005    33408          472 
Loop time of 30106.6 on 5 procs for 3000000 steps with 33408 atoms

Performance: 8.609 ns/day, 2.788 hours/ns, 99.646 timesteps/s
99.2% CPU use with 5 MPI tasks x no OpenMP threads

MPI task timing breakdown:
Section |  min time  |  avg time  |  max time  |%varavg| %total
---------------------------------------------------------------
Pair    | 736.59     | 1015.1     | 1199       | 537.8 |  3.37
Neigh   | 10640      | 13959      | 18287      |2743.0 | 46.36
Comm    | 2856.8     | 5545.6     | 8619.8     |3232.8 | 18.42
Output  | 1.0547     | 5.6246     | 6.7775     |  96.3 |  0.02
Modify  | 7359.6     | 9107.1     | 13814      |2526.1 | 30.25
Other   |            | 474.4      |            |       |  1.58

Nlocal:    6681.6 ave 6779 max 6552 min
Histogram: 1 0 1 0 0 0 0 1 1 1
Nghost:    17004.8 ave 17264 max 16621 min
Histogram: 1 0 0 0 0 1 1 0 1 1
Neighs:    14751.6 ave 17187 max 10856 min
Histogram: 1 0 0 0 0 1 0 1 1 1

Total # of neighbors = 73758
Ave neighs/atom = 2.20779
Neighbor list builds = 141546
Dangerous builds = 0

write_data        C199H148N2O9_gcmc4ns.data




Total wall time: 10:31:49
