LAMMPS (16 Mar 2018)
echo              both
units             real
dimension          3
atom_style        full
boundary          p p p
#pair_style        lj/class2/coul/long  12.5
pair_style          lj/class2/coul/cut 12.5
pair_modify       shift yes mix arithmetic
#kspace_style      pppm 0.0001
bond_style        class2
angle_style       class2
dihedral_style    class2
improper_style    class2

read_data          C39H37NO10S_191.data
  orthogonal box = (-340 -18 -10) to (200 63 71)
  10 by 2 by 2 MPI processor grid
  reading atoms ...
  16808 atoms
  scanning bonds ...
  4 = max bonds/atom
  scanning angles ...
  6 = max angles/atom
  scanning dihedrals ...
  15 = max dihedrals/atom
  scanning impropers ...
  4 = max impropers/atom
  reading bonds ...
  17954 bonds
  reading angles ...
  31515 angles
  reading dihedrals ...
  46604 dihedrals
  reading impropers ...
  14898 impropers
  4 = max # of 1-2 neighbors
  8 = max # of 1-3 neighbors
  22 = max # of 1-4 neighbors
  22 = max # of special neighbors

neighbor          2 bin
#neigh_modify      every 1 delay 0 check yes page 1000000 one 20000
neigh_modify      every 1 delay 0 check yes

thermo            1000
thermo_style      custom step temp press pe ke density

#variable          zl equal "zlo + 0.01*lz"
#variable          zh equal "zhi - 0.01*lz"


#fix               20 all indent 10000.0 plane z v_zh hi units box
#fix               21 all indent 10000.0 plane z v_zl lo units box

fix               1 all nvt temp 1000 1000 100
run               100000
Neighbor list info ...
  update every 1 steps, delay 0 steps, check yes
  max neighbors/atom: 2000, page size: 100000
  master list distance cutoff = 14.5
  ghost atom cutoff = 14.5
  binsize = 7.25, bins = 75 12 12
  1 neighbor lists, perpetual/occasional/extra = 1 0 0
  (1) pair lj/class2/coul/cut, perpetual
      attributes: half, newton on
      pair build: half/bin/newton
      stencil: half/bin/3d/newton
      bin: standard
Per MPI rank memory allocation (min/avg/max) = 0.9901 | 14.03 | 16.59 Mbytes
Step Temp Press PotEng KinEng Density 
       0            0   -826.76431     7274.071            0  0.063719632 
    1000    358.03445    136.70005    4951.9034     17936.98  0.063719632 
    2000    962.44065    74.117784    28340.879    48216.808  0.063719632 
    3000    1001.1721    80.607885    35660.245    50157.196  0.063719632 
    4000    1002.5307    33.140002    37378.426    50225.258  0.063719632 
    5000    997.48065    29.875303    38399.577    49972.259  0.063719632 
    6000    1000.4616   -25.136359    38923.001    50121.599  0.063719632 
    7000    1002.4083    151.02344    39118.974    50219.127  0.063719632 
    8000    1000.7365    53.425166    39604.789    50135.373  0.063719632 
    9000    1001.5965     45.54457     39195.68    50178.459  0.063719632 
   10000    1002.6071   -5.8313797    39416.775    50229.086  0.063719632 
   11000    996.32808   -104.94858    39498.003    49914.517  0.063719632 
   12000    1004.9905   -5.6487498    39942.727    50348.492  0.063719632 
   13000    988.86976   -33.007381    40205.472    49540.867  0.063719632 
   14000    1011.8281   -5.5056289    39658.348    50691.044  0.063719632 
   15000    999.19423   -8.2880593    40391.443    50058.107  0.063719632 
   16000    999.50682    -71.94845    40561.064    50073.767  0.063719632 
   17000    996.60061    20.998187    41024.669     49928.17  0.063719632 
   18000    990.44529   -59.412786     39745.11    49619.798  0.063719632 
   19000    1004.3147   -91.578229    40381.335    50314.634  0.063719632 
   20000    1005.5727    16.483626    39301.237    50377.656  0.063719632 
   21000    996.06606    7.6431184    40419.862     49901.39  0.063719632 
   22000    999.80003   -66.060122    40327.307    50088.456  0.063719632 
   23000    1000.7349   -83.752702    39811.133    50135.293  0.063719632 
   24000    993.94041   -47.765185    39567.757    49794.898  0.063719632 
   25000    998.75891    8.7526976     40675.04    50036.298  0.063719632 
   26000    1004.8002   -99.102896    39689.111    50338.959  0.063719632 
   27000    1007.1129   -98.045963    39191.721     50454.82  0.063719632 
   28000    1003.1633   -39.276119    40244.856    50256.949  0.063719632 
   29000    999.33636   -72.182364    39272.646    50065.227  0.063719632 
   30000    997.92489    79.827767    38493.998    49994.515  0.063719632 
   31000    1009.6165   -88.205179    40131.725    50580.246  0.063719632 
   32000    995.68556    -45.66204    39597.098    49882.328  0.063719632 
   33000    993.32604   -80.644347    39214.684    49764.119  0.063719632 
   34000    1008.2553    54.042652    39896.843     50512.05  0.063719632 
   35000     991.4158   -35.360598    38813.208    49668.419  0.063719632 
   36000     1001.304   -51.262588    39328.842    50163.803  0.063719632 
   37000    1005.2005    -10.22428    39463.809    50359.011  0.063719632 
   38000    996.30788   -38.830842    38780.387    49913.505  0.063719632 
   39000     1002.302    8.7523982    39226.611      50213.8  0.063719632 
   40000    1001.2982    20.180125    39958.484    50163.513  0.063719632 
   41000    1001.0531   -54.835849     38977.39    50151.234  0.063719632 
   42000    992.50015   -41.998367    39362.801    49722.744  0.063719632 
   43000    992.96678    52.021624    39265.373    49746.121  0.063719632 
   44000    1001.2619   -128.05358    40004.302    50161.696  0.063719632 
   45000    1001.4738   -140.41274    39029.027    50172.312  0.063719632 
   46000    993.22133    76.935016    39253.775    49758.874  0.063719632 
   47000    995.93038   -4.1020249    39906.835    49894.593  0.063719632 
   48000    999.03517     51.28065    39286.364    50050.138  0.063719632 
   49000    985.99592   -26.424435    38674.879    49396.891  0.063719632 
   50000    1000.4089   -39.458917    39304.447    50118.957  0.063719632 
   51000    1008.2036    20.255396    38949.565    50509.462  0.063719632 
   52000    999.45477    58.185803    38878.738    50071.159  0.063719632 
   53000    1000.5071    -84.77213    39282.775    50123.878  0.063719632 
   54000    996.93309    -19.21155    39792.944    49944.827  0.063719632 
   55000    998.56312     56.83103    38787.875    50026.489  0.063719632 
   56000    995.82349   -21.638978    38656.166    49889.238  0.063719632 
   57000    996.47918    -75.66673    39476.001    49922.087  0.063719632 
   58000    997.75988   -3.0852093    38402.541    49986.248  0.063719632 
   59000    1002.9398    56.044908    39704.813    50245.753  0.063719632 
   60000     989.9675    16.326053    38357.229    49595.862  0.063719632 
   61000    1001.6183   -39.107514    39835.244    50179.547  0.063719632 
   62000    986.26552   -64.007539    39495.559    49410.398  0.063719632 
   63000    997.65945    89.553994     39368.59    49981.217  0.063719632 
   64000    1000.7699   -22.362174    39479.961    50137.045  0.063719632 
   65000    1002.4042   -20.589491    38898.143    50218.922  0.063719632 
   66000    997.62848   0.10618319    39867.678    49979.665  0.063719632 
   67000    1011.6757   -1.9148444    39223.542    50683.409  0.063719632 
   68000    999.17283    9.5314194     39290.48    50057.035  0.063719632 
   69000    997.55882   -60.074507    39096.838    49976.175  0.063719632 
   70000     997.9147    9.1395064    38774.766    49994.004  0.063719632 
   71000    1000.8419   -97.733425    39309.211    50140.652  0.063719632 
   72000    999.21256   -51.961085    39003.572    50059.025  0.063719632 
   73000     1007.844   -10.657586    39509.264    50491.445  0.063719632 
   74000    998.98566    27.357188    38608.102    50047.658  0.063719632 
   75000    981.73633    -30.46206    38964.921    49183.492  0.063719632 
   76000    1010.2867   -5.4022551    38811.961    50613.823  0.063719632 
   77000    1004.7842    31.846011    38106.794    50338.158  0.063719632 
   78000    994.95684   -58.615487    39090.212     49845.82  0.063719632 
   79000    1008.4479    -25.48329    38465.019    50521.704  0.063719632 
   80000    995.19969   -17.584126     38454.57    49857.986  0.063719632 
   81000    995.21051    11.178248    38580.653    49858.528  0.063719632 
   82000    992.87597   -36.737302    38176.165    49741.571  0.063719632 
   83000    1000.2296    11.655426    39058.635    50109.978  0.063719632 
   84000    999.06987   -4.8833854    38687.467    50051.876  0.063719632 
   85000    1003.5738   -63.009659    37741.826    50277.516  0.063719632 
   86000    993.76227    25.325798    38184.222    49785.974  0.063719632 
   87000    1014.6124    53.419542    38453.354    50830.532  0.063719632 
   88000    1002.3795    60.867598    38943.302    50217.684  0.063719632 
   89000    998.57021   -5.0766685    38651.565    50026.844  0.063719632 
   90000     997.6925    6.0247357    38563.054    49982.872  0.063719632 
   91000    1001.9929    16.036766     38632.32    50198.315  0.063719632 
   92000    992.87888   -108.74092    39125.626    49741.717  0.063719632 
   93000    1004.0068   -71.662248    37201.356    50299.207  0.063719632 
   94000    1002.8218   -60.236884    38708.605    50239.843  0.063719632 
   95000    1001.0387   -36.010204    38487.941    50150.511  0.063719632 
   96000     1006.071   -38.776987    38290.878    50402.623  0.063719632 
   97000    995.90032   -9.4380608    38418.394    49893.087  0.063719632 
   98000    1003.7707   -44.938649    38678.172    50287.382  0.063719632 
   99000    1003.2603    27.515139    38164.999    50261.813  0.063719632 
  100000     1005.852    16.218375    38324.943    50391.652  0.063719632 
Loop time of 1838.65 on 40 procs for 100000 steps with 16808 atoms

Performance: 4.699 ns/day, 5.107 hours/ns, 54.388 timesteps/s
97.9% CPU use with 40 MPI tasks x no OpenMP threads

MPI task timing breakdown:
Section |  min time  |  avg time  |  max time  |%varavg| %total
---------------------------------------------------------------
Pair    | 8.8817     | 162.67     | 907.55     |1406.2 |  8.85
Bond    | 21.985     | 159.12     | 579.15     | 860.2 |  8.65
Neigh   | 170.47     | 173.15     | 177.12     |  14.5 |  9.42
Comm    | 91.625     | 754.75     | 1444.6     |1390.1 | 41.05
Output  | 0.012563   | 0.014725   | 0.039205   |   3.3 |  0.00
Modify  | 38.158     | 579.07     | 1146.3     |1310.5 | 31.49
Other   |            | 9.884      |            |       |  0.54

Nlocal:    420.2 ave 2550 max 0 min
Histogram: 22 7 4 3 1 1 0 1 0 1
Nghost:    1370.58 ave 2830 max 501 min
Histogram: 8 5 7 5 1 2 7 1 3 1
Neighs:    74625 ave 637343 max 0 min
Histogram: 30 2 4 0 2 0 1 0 0 1

Total # of neighbors = 2985000
Ave neighs/atom = 177.594
Ave special neighs/atom = 10.8636
Neighbor list builds = 10420
Dangerous builds = 0
unfix             1
write_data         C39H37NO10S_191nvt.data

fix               2 all npt temp 900 900 100 iso 100 100 1000
run               100000
Per MPI rank memory allocation (min/avg/max) = 15.06 | 16.22 | 18.5 Mbytes
Step Temp Press PotEng KinEng Density 
  100000     1005.852    16.218375    38324.943    50391.652  0.063719632 
  101000    904.88824    10.285177    32756.729     45333.52   0.06870841 
  102000    897.31992    42.912173    33104.586    44954.359  0.073138814 
  103000     897.9629    33.209849    33228.124    44986.571  0.077878375 
  104000    903.56467    6.7167748    32752.555    45267.211   0.08223909 
  105000    902.29905    54.164042    33082.213    45203.806  0.086985087 
  106000    897.01426    14.430242     32437.48    44939.046  0.091517627 
  107000    915.57442   -65.978387    32527.102    45868.881  0.096339163 
  108000    907.76408    167.86054    33231.095    45477.596   0.10098088 
  109000    896.94767   -66.029479    32204.736     44935.71   0.10566474 
  110000    902.98882    15.879136     31951.82    45238.363   0.11083282 
  111000    904.63792    1.5543652    32561.151     45320.98    0.1157365 
  112000    899.03239   -74.252741    32666.951    45040.151   0.12089228 
  113000     894.1393    70.854321    32722.788    44795.015   0.12609187 
  114000    904.18335   -228.69155    31732.324    45298.206   0.13152465 
  115000    902.84935   -151.07354    32482.413    45231.375    0.1368942 
  116000    895.78504    58.603563    32694.952    44877.464   0.14283513 
  117000      894.975    12.448988    32088.808    44836.882   0.14790208 
  118000    894.78451    62.257953    33385.155    44827.339   0.15385753 
  119000    896.35425    68.220445    31665.679    44905.981   0.15992704 
  120000     900.2554    227.28211    32015.623    45101.422   0.16602727 
  121000    901.86485    77.559412    31352.703    45182.053   0.17216072 
  122000    899.55198    23.682125    31850.182    45066.182   0.17819906 
  123000     905.7479   -81.877347    32333.938    45376.588   0.18483313 
  124000    899.13614    85.662425    31898.604    45045.349   0.19101128 
  125000    897.77756    34.078716    31124.623    44977.286   0.19787503 
  126000    902.22307    215.62854    32186.616    45199.999   0.20467459 
  127000    897.75409    204.39068    31273.016    44976.111   0.21140999 
  128000    908.45725    208.22177    32153.451    45512.323   0.21856298 
  129000    909.54614    281.72272    31582.112    45566.874    0.2256896 
  130000    892.55392    98.260058    32849.202     44715.59   0.23268342 
  131000    897.47535    -73.56554    31151.883    44962.146   0.24002683 
  132000    900.30717    338.15322    30985.842    45104.016   0.24823067 
  133000    897.44827    36.132785    31329.819    44960.789    0.2552511 
  134000    886.23193    -87.98502    32357.775    44398.868   0.26318609 
  135000    900.28882     31.38885    31593.546    45103.097   0.27157682 
  136000    898.34038   -11.325898    31867.428    45005.483    0.2796461 
  137000    897.60067    12.790361    32719.988    44968.424   0.28809219 
  138000    895.90716    136.50942     30965.76    44883.582   0.29734498 
  139000    895.50097    -146.8899    31064.878    44863.233   0.30640496 
  140000    906.05473    116.40434    31784.593     45391.96   0.31536477 
  141000    899.12758   -243.75094    31820.284     45044.92   0.32506605 
  142000    904.59882   -103.15875    31304.616    45319.021   0.33483597 
  143000    906.99568   -60.961558    31608.461      45439.1   0.34576587 
  144000      902.498    232.02033    31230.958    45213.773   0.35499714 
  145000    905.02529    123.24375    30293.743    45340.386   0.36594822 
  146000    891.79455   -124.05162    30542.338    44677.546   0.37437123 
  147000    894.19485   -277.80382    31133.105    44797.798   0.38576409 
  148000    899.39016   -9.3731283    30690.179    45058.075   0.39872359 
  149000     904.8861   -29.046264    31323.096    45333.413   0.41003508 
  150000    901.46776    176.45134    31425.354     45162.16   0.42121066 
  151000    901.85866    811.59911    30246.215    45181.743   0.43136339 
  152000    904.94968   -674.48913    29906.592    45336.598   0.44309312 
  153000    902.62591   -603.87481    29043.491    45220.181   0.45773297 
  154000    892.97777    281.34811    29463.614    44736.824   0.47226925 
  155000    906.55425   -26.881295    29912.554    45416.985   0.48457282 
  156000    901.03629    117.64972    29371.803    45140.543   0.49593219 
  157000    906.75313   -93.632541    29089.863    45426.949   0.51025908 
  158000    899.19924   -195.16092    29903.258     45048.51    0.5250469 
  159000    907.61635   -420.14968    29177.885    45470.195   0.53827225 
  160000    899.54326    -371.0426    30316.019    45065.745   0.55135173 
  161000    905.27432   -134.90136    31743.161    45352.862   0.56483562 
  162000    905.73134     144.2364    30995.882    45375.759    0.5809103 
  163000    898.21621   -541.93439    30328.197    44999.262   0.59622018 
  164000    906.26952    534.96641    29872.115    45402.721    0.6095212 
  165000    893.70587   -602.60503    30349.531    44773.301   0.61779774 
  166000    902.62786   -149.44996    30312.725    45220.279   0.63018529 
  167000    901.58051   -415.21407    29832.513    45167.808     0.640808 
  168000    894.13791    396.50964    30433.519    44794.945   0.65647324 
  169000    897.63679    -82.20954    29787.494    44970.234   0.67485966 
  170000    904.05061     719.2337    29748.016    45291.557   0.68816419 
  171000    898.73975   -271.50463    29339.223     45025.49   0.70143363 
  172000     894.5988    159.55486    29672.666    44818.035   0.71720526 
  173000    895.57318   -590.93431     29573.27     44866.85   0.72996358 
  174000    895.00134    478.67199    29824.818    44838.202     0.744799 
  175000    901.72928    1702.6533    28891.119    45175.261   0.75361799 
  176000    908.56137    710.32291    28959.107    45517.539   0.76704286 
  177000    897.90173    -1728.635    28785.899    44983.507   0.78158548 
  178000    900.82623    212.87816     29646.95     45130.02   0.78688618 
  179000    906.07038    454.20612    30789.643    45392.744   0.80309922 
  180000    893.07333    972.44925    28636.889    44741.612   0.81710503 
  181000    898.30058    914.91829    29038.593    45003.489   0.82970334 
  182000    892.93152    80.231756    27474.989    44734.507    0.8387855 
  183000    908.16225    978.07958    28951.641    45497.543   0.85327601 
  184000    911.76009    1158.6944    29305.248     45677.79   0.86747112 
  185000    895.30277   -155.67233    29445.219    44853.303   0.87471098 
  186000    894.41738     -554.634    28157.326    44808.947   0.88151915 
  187000    904.92437     291.3217    27951.069    45335.331   0.89351912 
  188000    894.36074    -1088.403    29081.444    44806.109   0.90726589 
  189000    903.37639     156.0982    28238.212    45257.779   0.91604195 
  190000    906.41233    924.33425    28454.274    45409.875   0.92319558 
  191000     908.5007   -1490.3909    28422.444    45514.499   0.93207115 
  192000    902.78926   -315.96413    28972.528    45228.365   0.94519606 
  193000    905.34863     402.2135    28380.619    45356.585   0.95363567 
  194000    900.66868    187.23286    29225.439    45122.127   0.95497256 
  195000    905.70823   -313.51891    29340.725    45374.601   0.96281431 
  196000    898.70731      114.624    28602.835    45023.865   0.95062494 
  197000    909.19507   -1277.2198    28628.892    45549.286   0.94566419 
  198000    903.92812    648.40684    28937.926     45285.42   0.95088675 
  199000    895.87477    30.110884    28705.412    44881.959   0.96252028 
  200000    912.00381   -251.99005    28025.966        45690    0.9497473 
WARNING: Bond/angle/dihedral extent > half of periodic box length (../domain.cpp:907)
Loop time of 1767.24 on 40 procs for 100000 steps with 16808 atoms

Performance: 4.889 ns/day, 4.909 hours/ns, 56.585 timesteps/s
98.3% CPU use with 40 MPI tasks x no OpenMP threads

MPI task timing breakdown:
Section |  min time  |  avg time  |  max time  |%varavg| %total
---------------------------------------------------------------
Pair    | 94.792     | 389.27     | 798.57     | 956.9 | 22.03
Bond    | 49.351     | 164.55     | 352.28     | 614.7 |  9.31
Neigh   | 182.02     | 184.71     | 189.95     |  12.4 | 10.45
Comm    | 173.38     | 717.3      | 1280.4     |1086.5 | 40.59
Output  | 0.011764   | 0.012623   | 0.014134   |   0.4 |  0.00
Modify  | 93.577     | 299.91     | 575.42     | 582.4 | 16.97
Other   |            | 11.49      |            |       |  0.65

Nlocal:    420.2 ave 496 max 377 min
Histogram: 6 5 8 2 7 5 5 1 0 1
Nghost:    6972.5 ave 7228 max 6650 min
Histogram: 1 0 3 7 5 5 8 4 4 3
Neighs:    187850 ave 236877 max 151901 min
Histogram: 2 4 8 6 6 6 5 1 1 1

Total # of neighbors = 7513988
Ave neighs/atom = 447.048
Ave special neighs/atom = 10.8636
Neighbor list builds = 9819
Dangerous builds = 0
unfix             2

fix               3 all npt temp 700 700 100 iso 100 100 1000
run               100000
WARNING: Bond/angle/dihedral extent > half of periodic box length (../domain.cpp:907)
Per MPI rank memory allocation (min/avg/max) = 16.25 | 17.3 | 18.82 Mbytes
Step Temp Press PotEng KinEng Density 
  200000    912.00381   -251.99005    28025.966        45690    0.9497473 
  201000    708.32308    571.86053    18531.306    35485.906   0.98703445 
  202000    695.32778    300.44634    17061.638    34834.861    1.0156286 
  203000    705.94548    -98.96808    17370.998    35366.791    1.0260476 
  204000    702.10298    1094.2936    17806.021    35174.288    1.0388689 
  205000    698.28907   -270.33078    16730.394    34983.217    1.0522256 
  206000    705.80644     315.1892    16928.858    35359.826    1.0595594 
  207000    706.12504   -100.70422    16762.584    35375.787     1.066867 
  208000    702.71299    376.20897    17054.578    35204.849    1.0804132 
  209000    698.94213     257.2541    15579.824    35015.935      1.06623 
  210000    700.19476   -108.47394    17005.516    35078.689    1.0663726 
  211000    692.47298   -411.88076    15952.682     34691.84      1.07108 
  212000    703.90731   -502.73022     15871.85    35264.683     1.064968 
  213000    705.31297   -171.36786    16108.794    35335.104    1.0623192 
  214000    693.94214   -155.80317    17760.283    34765.442    1.0703705 
  215000    702.95029     1215.029    16215.604    35216.737    1.0617963 
  216000    698.10831    792.48329    15923.928    34974.161    1.0737221 
  217000    701.77788    -212.9177    15836.133    35158.001    1.0630835 
  218000    703.05989    527.80126    16670.921    35222.228     1.075643 
  219000    704.74013    -1221.016    17242.463    35306.406    1.0668532 
  220000    706.79019    127.85628    16924.267     35409.11    1.0839715 
  221000    699.39336   -493.58787     16391.81     35038.54    1.0751351 
  222000    699.13852   -211.30662    16733.186    35025.773    1.0735363 
  223000    706.01731     455.5513     16184.69     35370.39    1.0814107 
  224000    701.42954   -689.83364    17521.669     35140.55    1.0752231 
  225000    703.30007   -484.45741    16427.795    35234.261    1.0822849 
  226000    704.06542    249.61462    17104.355    35272.603    1.0608377 
  227000    705.45828   -1211.8183    17335.421    35342.384    1.0771046 
  228000    696.06109    1496.3682    16468.266    34871.599    1.0785132 
  229000    699.32758    -56.23791    17032.016    35035.245    1.0822349 
  230000    699.66179     23.85153    16686.196    35051.988    1.0702934 
  231000    699.05805   -807.79023    16151.494    35021.742    1.0786629 
  232000    697.89912    178.63875    17068.557    34963.681    1.0749646 
  233000    699.67471   -964.94812    15449.334    35052.636      1.08081 
  234000    688.27974   -559.49179    15945.935    34481.765    1.0827506 
  235000    703.65693   -39.722468    16335.067    35252.139    1.0799566 
  236000    702.83512    1140.9679     15094.02    35210.967    1.0932128 
  237000     695.3179   -126.65898    17240.338    34834.366    1.0740743 
  238000    703.60619    859.81991    16927.041    35249.597    1.0856169 
  239000    703.40328     715.4408    16767.693    35239.431    1.0717497 
  240000    694.84583     585.1161    15973.062    34810.716     1.083897 
  241000     697.7037   -397.01619    16829.221    34953.891    1.0789515 
  242000    700.87915    2307.5571    17163.817    35112.976    1.0846153 
  243000    694.01684   -58.850512    16321.534    34769.185    1.0794469 
  244000    702.34751    1403.9627    16824.893    35186.539    1.0714068 
  245000    706.46002   -2006.7181    17982.444    35392.569    1.0811244 
  246000    693.98351     389.1516    16511.318    34767.515    1.0808936 
  247000    702.90869    614.15791    16853.868    35214.653    1.0865203 
  248000    698.85828    332.94563    15038.161    35011.734    1.1006777 
  249000    696.55066    332.86463    16536.073    34896.125    1.0868475 
  250000    692.12739    -702.0828    16259.257    34674.526    1.0873969 
  251000    706.71311    418.64397    16336.361    35405.249    1.0906429 
  252000    696.76768    404.09943    16082.968    34906.998     1.076656 
  253000    699.01084    629.40266    17211.544    35019.377     1.081336 
  254000    705.55017   -80.153354     17595.95    35346.987    1.0749326 
  255000    698.61343    20.888016    15360.092    34999.467    1.0879402 
  256000    697.47422   -267.23336    16723.407    34942.395    1.0857847 
  257000    690.55581   -1516.0082    16797.311    34595.793    1.0774857 
  258000    701.49875    628.70045    16124.143    35144.017    1.0810573 
  259000    694.83675   -346.84832    16424.597    34810.261    1.0900547 
  260000    699.94303   -72.747304    16430.962    35066.078    1.0862344 
  261000    691.70386   -788.18786    16461.288    34653.308    1.0763941 
  262000    705.22312    641.53554    16396.493    35330.603     1.090928 
  263000    702.11863    1446.8711    15723.574    35175.072    1.0764363 
  264000     703.1238    431.18973    16146.846     35225.43    1.0942856 
  265000    702.31883   -197.88377    17026.981    35185.102    1.0753523 
  266000    701.81545   -901.58891    16268.867    35159.883    1.0718855 
  267000    696.51451   -1657.2023    16199.168    34894.314    1.0874757 
  268000    702.47251   -227.34878    15848.447    35192.801    1.0830341 
  269000    710.88692   -412.33435     15484.13     35614.35    1.0846728 
  270000    695.22509    89.144087    17057.604    34829.717    1.0762048 
  271000      697.683    459.28306    15877.934    34952.854    1.0719852 
  272000    696.57994    434.45187    15527.553    34897.592    1.0856473 
  273000    699.75747    171.16061    16213.915    35056.782    1.0812904 
  274000    702.22184    197.83226    15623.357    35180.243    1.0887764 
  275000    707.55325    942.91815    16942.066    35447.338    1.0772849 
  276000    703.89375    405.94578    15969.526    35264.003    1.0883656 
  277000    697.11419    347.04988    16748.155    34924.358    1.0776876 
  278000    698.95724    1345.2137    16446.554    35016.691    1.1025398 
  279000    703.55645    410.77312    14897.895    35247.105    1.0859971 
  280000    700.13425   -556.04744    16726.435    35075.658    1.0842159 
  281000    697.44339   -349.20285    18295.473     34940.85    1.0862919 
  282000    708.59572   -487.63491    16622.593    35499.564    1.0723741 
  283000    703.49445    312.87833    15931.984    35243.999    1.0878233 
  284000    698.95566   -423.80555    15116.265    35016.612     1.092861 
  285000    698.47019   -133.09074    15318.293    34992.291    1.0863755 
  286000    699.60794     14.17189    15067.554    35049.291    1.0993986 
  287000    695.12486    854.55537    16911.477    34824.695    1.0864417 
  288000    708.20054    170.87353    16387.781    35479.767    1.0834779 
  289000    703.03374   -383.22288    15892.838    35220.918    1.0874022 
  290000    697.46144   -556.07611    15166.989    34941.754    1.0857517 
  291000    709.67349   -8.0483765    16632.416    35553.559    1.0914617 
  292000    695.88359    735.78232    16060.143    34862.706    1.0885516 
  293000    703.91612    249.92396    16793.911    35265.124    1.0861466 
  294000    695.45121    -368.9941    15039.149    34841.044    1.0823626 
  295000    693.61906    55.354427    15830.793    34749.257    1.0801447 
  296000    700.60773    1890.8804    16573.988    35099.378    1.0864574 
  297000    701.09534    1380.4699    16541.965    35123.807    1.0945224 
  298000    702.26261    84.025789    16301.312    35182.286    1.0824955 
  299000    697.06461   -331.07694     16813.18    34921.874    1.0931029 
  300000    696.13533    862.22358    14994.084    34875.318    1.0885504 
WARNING: Bond/angle/dihedral extent > half of periodic box length (../domain.cpp:907)
Loop time of 1186.68 on 40 procs for 100000 steps with 16808 atoms

Performance: 7.281 ns/day, 3.296 hours/ns, 84.269 timesteps/s
99.1% CPU use with 40 MPI tasks x no OpenMP threads

MPI task timing breakdown:
Section |  min time  |  avg time  |  max time  |%varavg| %total
---------------------------------------------------------------
Pair    | 383.75     | 616.88     | 724.41     | 293.7 | 51.98
Bond    | 107.21     | 167.42     | 184.69     | 147.8 | 14.11
Neigh   | 112.46     | 116.19     | 121.01     |  16.9 |  9.79
Comm    | 103.46     | 231.98     | 534.27     | 604.7 | 19.55
Output  | 0.01114    | 0.011868   | 0.028614   |   2.5 |  0.00
Modify  | 27.039     | 41.779     | 54.242     | 113.3 |  3.52
Other   |            | 12.42      |            |       |  1.05

Nlocal:    420.2 ave 474 max 373 min
Histogram: 4 2 3 5 10 5 3 3 3 2
Nghost:    7679.8 ave 7859 max 7287 min
Histogram: 1 0 3 0 4 3 7 7 10 5
Neighs:    215289 ave 249729 max 178046 min
Histogram: 2 0 5 3 7 8 8 1 4 2

Total # of neighbors = 8611551
Ave neighs/atom = 512.348
Ave special neighs/atom = 10.8636
Neighbor list builds = 8077
Dangerous builds = 0
unfix             3

fix               4 all npt temp 500 500 100 iso 100 100 1000
run               100000
WARNING: Bond/angle/dihedral extent > half of periodic box length (../domain.cpp:907)
Per MPI rank memory allocation (min/avg/max) = 16.26 | 17.35 | 18.83 Mbytes
Step Temp Press PotEng KinEng Density 
  300000    696.13533    862.22358    14994.084    34875.318    1.0885504 
  301000    503.39026   -233.46779      5233.16    25219.084    1.1272122 
  302000    493.07627    137.04406     4430.305    24702.369    1.1432343 
  303000    505.34589    1093.2068    5050.8621    25317.058    1.1547999 
  304000    497.98772     -918.422    5418.3947    24948.425    1.1506631 
  305000    499.13923    26.342394    3141.3872    25006.114    1.1658313 
  306000     503.6781   -113.05645    4469.5318    25233.504    1.1655192 
  307000    495.90907   -937.64811    5877.5894    24844.288    1.1735926 
  308000    496.55888    90.300292    5330.5095    24876.843    1.1727128 
  309000    498.98685    358.14834    5876.5257     24998.48    1.1773174 
  310000    500.43816     636.4879    4763.7549    25071.188    1.1733373 
  311000    501.65728    490.99275    5869.4923    25132.264    1.1693169 
  312000    504.25926    495.32345     4647.741     25262.62    1.1738293 
  313000    499.59457     166.0302    5713.7451    25028.926    1.1780091 
  314000    503.58133   -315.46191    4051.5128    25228.657    1.1778649 
  315000    498.81687   -530.72511     4505.702    24989.964    1.1832671 
  316000    500.26271    460.84845    4591.1873    25062.399    1.1796196 
  317000    499.43991   -583.01392    5419.6985    25021.178    1.1742228 
  318000    497.59407    735.38817    4821.2472    24928.704    1.1836631 
  319000    500.53892    711.58827     3447.422    25076.236    1.1844994 
  320000    499.46203   -66.221347    5315.6462    25022.286    1.1805441 
  321000    503.37965   -292.85254    3414.4918    25218.553    1.1854923 
  322000    501.18731   -28.962227    3412.9577     25108.72    1.1838415 
  323000    498.08426   -570.97966    4671.6897    24953.261    1.1828135 
  324000    495.12186    255.81095    5404.1393     24804.85    1.1791119 
  325000    505.26131    70.317675    5146.0047    25312.821    1.1813366 
  326000    495.47479    605.15073    4392.1231    24822.531    1.1836421 
  327000    498.38016     276.2029      4471.42    24968.086    1.1866149 
  328000    502.64664   -67.988335    3677.9875     25181.83    1.1815929 
  329000    507.17557   -176.97049    4120.9738    25408.723    1.1863323 
  330000    502.49691   -130.93765    4544.7939    25174.329    1.1856382 
  331000    502.10586    818.34438    4674.4726    25154.738    1.1840832 
  332000    501.64505    106.31415    4260.0683    25131.652    1.1770435 
  333000    500.09819    99.227182    4830.1613    25054.156    1.1853558 
  334000    501.33821     354.9769    4241.5793    25116.279    1.1791794 
  335000    501.91516   -457.15159    5141.0193    25145.184     1.177309 
  336000    497.33569   -237.36362    4635.9512    24915.759     1.179739 
  337000    499.36186    772.90163     4216.308    25017.267     1.190696 
  338000    500.44894   -139.63459     3716.939    25071.728    1.1761091 
  339000    496.97041   -0.3183989    4757.4523     24897.46     1.169987 
  340000    501.29614    404.82618    4343.0024    25114.172    1.1846581 
  341000       500.83   -315.30201    2878.9878    25090.819    1.1829907 
  342000    497.90919    815.32175    5559.6354    24944.491    1.1814808 
  343000    506.34739    2096.7859    5069.3019    25367.232    1.1805061 
  344000    502.00575   -283.41929    4618.0273    25149.722    1.1817177 
  345000    496.91943   -772.67322    5120.2499    24894.905    1.1803031 
  346000    500.67026     482.9724    4559.1725    25082.816    1.1843315 
  347000    497.07318     163.1861    4421.6222    24902.608    1.1868339 
  348000    505.84882   -476.29325    4964.4555    25342.254     1.187701 
  349000    497.59538    194.58898    3806.4012     24928.77    1.1853159 
  350000    497.51298   -888.71718    3802.0997    24924.641    1.1799412 
  351000     497.6383   -239.69559     4785.461     24930.92    1.1866485 
  352000    505.78598    492.92859    5760.1295    25339.106    1.1887662 
  353000    497.21416   -37.199422    4419.9521    24909.671    1.1856471 
  354000    502.91808   -235.56135    4423.5117    25195.428    1.1875504 
  355000    495.21294    212.67502    5729.7158    24809.413    1.1796371 
  356000    498.09755    431.73776    4474.2795    24953.927    1.1839774 
  357000    502.98107   -488.98938    4093.9775    25198.584    1.1874764 
  358000    502.04998    481.16662    4497.9259    25151.938    1.1897198 
  359000    501.68806    -31.74771    3319.8995    25133.806    1.1934889 
  360000    501.15973    223.57646    3927.0296    25107.338    1.1963275 
  361000    498.32991   -217.16062    2804.5013    24965.568    1.1863114 
  362000    499.42864    1135.8372    3952.8066    25020.613    1.1955898 
  363000    502.28222    400.28054    4191.6028    25163.573    1.1911449 
  364000    502.92297   -52.785805    4388.2218    25195.674     1.192876 
  365000    498.53656   -110.37293    4004.6097    24975.921    1.1874287 
  366000    499.92911    217.73145    5095.9846    25045.686    1.1894268 
  367000    499.07764   -986.77043    4539.9092    25003.029      1.19126 
  368000    503.42983    -461.7856    4050.5408    25221.067    1.1834572 
  369000    504.08693    181.92648    4270.3535    25253.986    1.1869923 
  370000    501.55855    954.11749    3513.8981    25127.318    1.1887469 
  371000    496.26716    629.03961     4176.017    24862.228    1.1949743 
  372000    496.39702   -1167.0654    3111.7871    24868.733     1.194689 
  373000    500.61062   -12.640258    4137.4676    25079.829    1.1926517 
  374000    505.71776    966.72427    4323.6775    25335.688    1.1946601 
  375000    497.32037    209.20174    4789.3364    24914.992    1.1925285 
  376000    498.55386    878.38098    4300.5149    24976.788    1.1910677 
  377000    496.83481     1389.242    4639.4453    24890.666    1.1911051 
  378000    497.73098   -598.45066    4774.2157    24935.563    1.1841248 
  379000       494.64   -517.90184    5175.2997     24780.71    1.1867206 
  380000    502.69614    536.27249    5501.0483     25184.31     1.194354 
  381000    500.74197    480.52983    5971.9338    25086.409    1.1832855 
  382000    496.07258    374.46632    3719.7343     24852.48    1.1875741 
  383000     504.5602    832.77966    4324.3873    25277.696    1.1911488 
  384000    500.54531    417.03017    4696.9092    25076.556    1.1926051 
  385000    499.04884   -124.81498    3878.5915    25001.586    1.1800621 
  386000    505.55615   -275.24214    3862.1798    25327.592    1.1933352 
  387000    503.85856    206.38746    4256.9956    25242.545    1.1882027 
  388000     505.4312   -1037.3435    4794.2508    25321.332    1.1794498 
  389000    499.03293   -333.78859    2861.3336    25000.789    1.1908808 
  390000    496.96385    952.41867    3023.0804    24897.131    1.1872848 
  391000    503.04489   -766.43534    4299.1802    25201.782    1.1849754 
  392000    493.70933    729.64285    5641.0982    24734.084    1.1859967 
  393000    503.43091   -1288.0247    3756.1187     25221.12    1.1841517 
  394000    501.17278   -494.87489    3207.8416    25107.992    1.1893024 
  395000    501.38316    1350.6623    4362.8516    25118.532    1.1944259 
  396000     500.5935    165.33899    3324.4362    25078.971     1.184864 
  397000     502.2511    359.04459    3647.1066    25162.014    1.1874043 
  398000    498.21888   -292.92924    3961.5038    24960.006    1.1877494 
  399000    501.45783    119.00846    3038.4358    25122.273    1.1850844 
  400000    497.41582    107.34937    3377.9395    24919.774    1.1931929 
WARNING: Bond/angle/dihedral extent > half of periodic box length (../domain.cpp:907)
Loop time of 1222.75 on 40 procs for 100000 steps with 16808 atoms

Performance: 7.066 ns/day, 3.397 hours/ns, 81.783 timesteps/s
99.1% CPU use with 40 MPI tasks x no OpenMP threads

MPI task timing breakdown:
Section |  min time  |  avg time  |  max time  |%varavg| %total
---------------------------------------------------------------
Pair    | 450.83     | 673.86     | 788.55     | 312.6 | 55.11
Bond    | 110.81     | 166.82     | 191.77     | 151.1 | 13.64
Neigh   | 93.431     | 96.949     | 100.51     |  17.2 |  7.93
Comm    | 100.46     | 225.86     | 487.98     | 639.6 | 18.47
Output  | 0.010817   | 0.011435   | 0.027655   |   2.4 |  0.00
Modify  | 15.372     | 48.771     | 72.299     | 297.7 |  3.99
Other   |            | 10.48      |            |       |  0.86

Nlocal:    420.2 ave 457 max 383 min
Histogram: 3 2 4 3 8 5 6 5 1 3
Nghost:    8166.2 ave 8349 max 7890 min
Histogram: 1 0 0 4 6 7 12 5 2 3
Neighs:    236069 ave 263089 max 208572 min
Histogram: 2 3 2 4 10 3 8 4 1 3

Total # of neighbors = 9442775
Ave neighs/atom = 561.802
Ave special neighs/atom = 10.8636
Neighbor list builds = 6338
Dangerous builds = 0
unfix             4

fix               5 all npt temp 300 300 100 iso 100 100 1000
run               100000
WARNING: Bond/angle/dihedral extent > half of periodic box length (../domain.cpp:907)
Per MPI rank memory allocation (min/avg/max) = 16.35 | 17.36 | 18.83 Mbytes
Step Temp Press PotEng KinEng Density 
  400000    497.41582    107.34937    3377.9395    24919.774    1.1931929 
  401000    298.02707    578.34356   -6227.2763    14930.701    1.2358437 
  402000    298.11475    500.90067   -7125.7421    14935.094    1.2362066 
  403000    301.71285    576.79117   -6920.5623    15115.354     1.245062 
  404000    298.41242    1677.4975   -6637.9934    14950.007    1.2443358 
  405000     302.6176    239.00541   -7315.9204     15160.68    1.2453503 
  406000    297.70719   -271.10669   -6918.1316    14914.676    1.2453161 
  407000    300.40632    105.05434   -6260.2188    15049.898    1.2443719 
  408000     300.0582    1198.9826   -6841.9078    15032.458    1.2451548 
  409000    298.56962    190.41723   -7453.6549    14957.882    1.2485974 
  410000    303.80408    258.53648   -7721.6856    15220.121    1.2498945 
  411000    301.03602    233.67401   -7685.2364    15081.446    1.2485792 
  412000    299.60464    637.50287   -7566.1666    15009.736    1.2479714 
  413000      300.453    56.633841   -6544.2916    15052.237    1.2458344 
  414000    302.20171    865.16787   -6608.2346    15139.844    1.2511101 
  415000    301.59499   -460.98346   -6869.2964    15109.449    1.2516692 
  416000    300.85769   -591.01828   -7622.2225    15072.511    1.2507934 
  417000    297.66134    176.13605    -6786.916    14912.379     1.252901 
  418000    299.98627    224.79685   -8216.2688    15028.855     1.248804 
  419000    301.46224   -81.037665   -5615.9889    15102.799    1.2515484 
  420000    298.82796    333.63524   -5995.0016    14970.825    1.2478458 
  421000    300.94995   -92.425055   -6736.5003    15077.134    1.2517328 
  422000    301.22695   -734.24044   -7867.7866    15091.011    1.2532837 
  423000    298.98463    202.64591   -7232.4992    14978.674     1.250993 
  424000    302.64906    478.01742   -7241.9814    15162.256    1.2485972 
  425000    299.20764    350.26455   -6761.8175    14989.846    1.2505597 
  426000    300.82676   -482.91933   -7209.9348    15070.962    1.2524547 
  427000     303.3547    12.163354   -7346.6762    15197.608    1.2542519 
  428000    297.68298   -422.75512   -6608.0659    14913.463    1.2511241 
  429000    303.15166    1405.0928   -6009.4089    15187.436    1.2569504 
  430000    301.25519   -935.62972   -7317.0121    15092.425    1.2586771 
  431000    302.19761   -144.76062   -7867.5271    15139.639    1.2573797 
  432000    300.00505   -354.26125   -7104.1851    15029.796    1.2574665 
  433000    299.13012   -77.703241   -6983.9303    14985.963     1.253491 
  434000    301.17858    384.76675   -6982.4703    15088.587    1.2537605 
  435000    303.72007   -840.89179   -7949.8808    15215.912    1.2518361 
  436000     297.0556   -1119.0979   -6891.2165    14882.032    1.2460765 
  437000    302.73652   -1023.7342   -7537.1003    15166.638    1.2546774 
  438000    299.16894   -66.238802   -6442.4555    14987.907    1.2511198 
  439000    303.80943   -438.40432   -8089.7434    15220.389    1.2539459 
  440000    299.71236   -602.92744   -6667.7304    15015.132     1.253909 
  441000     299.7123   -568.63072    -6405.637    15015.129    1.2503722 
  442000    300.78987   -659.44677   -7079.0044    15069.114    1.2528155 
  443000    300.82258   -318.76129   -7685.7486    15070.752    1.2542484 
  444000    296.42722    65.610201   -7242.5061    14850.552    1.2514058 
  445000     298.9003   -395.66477   -6998.1445    14974.449    1.2511127 
  446000    305.13488    1000.3171   -6817.1233    15286.792    1.2539513 
  447000    299.57825   -1161.6886   -6865.5094    15008.413    1.2508132 
  448000    299.90241    65.848155   -5534.6778    15024.653    1.2542442 
  449000    302.21514    747.91069   -6941.6842    15140.518    1.2518952 
  450000    301.23297    399.93678   -7023.6835    15091.313    1.2512308 
  451000    297.92151   -795.27717   -6291.4233    14925.413    1.2533596 
  452000    300.63317    1205.9215   -6017.8854    15061.263    1.2535916 
  453000    302.24445    1112.1498   -7501.5543    15141.986     1.258448 
  454000    300.86582    572.26656   -7189.0764    15072.919    1.2565013 
  455000    302.64767    1365.0474    -7415.239    15162.187     1.253737 
  456000    300.12023    197.12721   -6587.4635    15035.566    1.2542819 
  457000     299.8462   -35.877694   -7531.1108    15021.837    1.2545896 
  458000    303.32783     812.7043   -6606.5926    15196.261    1.2570778 
  459000    299.76612   -352.65004   -7745.7381    15017.825    1.2528012 
  460000    298.05794    205.30787   -7170.8558    14932.248    1.2520759 
  461000    300.55786    462.92868   -7069.0478     15057.49    1.2493589 
  462000      298.682   -485.57165   -7884.2309    14963.513    1.2502566 
  463000    302.60356    540.12731   -6611.9318    15159.977    1.2572802 
  464000    302.74956     586.1598   -6154.0618    15167.291    1.2537742 
  465000    302.03504    599.29453   -6829.1677    15131.495    1.2516503 
  466000    300.50261    123.69206   -6293.4344    15054.722    1.2538074 
  467000    302.78206    -854.9386   -7152.3498    15168.919    1.2517883 
  468000    299.91524   -846.29288   -5646.3132    15025.296    1.2505035 
  469000    300.65191   -406.71942   -7265.3924    15062.202     1.251398 
  470000     302.8169    304.28302   -7288.3529    15170.665     1.251366 
  471000    299.47797    274.86336   -5662.9797     15003.39    1.2538958 
  472000    302.81547   -441.83188   -5924.7381    15170.593    1.2526898 
  473000    297.59843    233.97914   -6058.6327    14909.227    1.2543882 
  474000     298.8958   -917.76039   -6619.6997    14974.224    1.2541923 
  475000    298.26508   -490.39901   -5860.5356    14942.626     1.248178 
  476000    299.67965    -463.0585   -6883.7049    15013.493    1.2494303 
  477000    297.53281     111.8376   -6666.5553     14905.94    1.2516959 
  478000    301.80267   -19.805366   -6399.8057    15119.853     1.251219 
  479000    300.13318   -81.852281   -6514.2458    15036.214    1.2564812 
  480000    298.15126    418.47783    -5963.092    14936.923    1.2511138 
  481000    301.80875    376.36795   -7566.9344    15120.158    1.2562862 
  482000    297.65791    293.30362   -6783.7557    14912.207     1.251505 
  483000     299.6792    -480.3902   -7208.2271    15013.471    1.2482034 
  484000    302.00921    104.69658   -6721.2324    15130.201    1.2549392 
  485000    298.88368    276.05082    -6191.078    14973.616    1.2551611 
  486000    300.45711    924.42977   -6613.6749    15052.443    1.2562195 
  487000    298.17619   -683.16225   -8211.4402    14938.172    1.2513981 
  488000    299.01952   -164.70963   -6608.9737    14980.422    1.2576952 
  489000    299.09553     56.33516   -8788.3673     14984.23    1.2580909 
  490000    301.79857    594.55348    -6469.051    15119.648    1.2530965 
  491000     302.1304   -234.55571     -7621.31    15136.272    1.2532919 
  492000    299.67054    -365.3202   -7083.2154    15013.037    1.2574145 
  493000    298.42939   -312.62265   -7796.3019    14950.857    1.2545362 
  494000    296.71423    -488.6294   -7668.1488     14864.93    1.2516644 
  495000    300.02577   -129.02481   -6064.6706    15030.833    1.2560674 
  496000    302.67485   -37.377559    -7147.012    15163.548    1.2562256 
  497000     297.1238    130.85915   -6455.0446    14885.449    1.2528248 
  498000    297.84441    361.45278   -7475.5481     14921.55    1.2555498 
  499000    300.79271    287.58508   -8036.3097    15069.256    1.2533259 
  500000    303.24248   -354.48915   -6824.0921    15191.986    1.2521724 
WARNING: Bond/angle/dihedral extent > half of periodic box length (../domain.cpp:907)
Loop time of 1192.2 on 40 procs for 100000 steps with 16808 atoms

Performance: 7.247 ns/day, 3.312 hours/ns, 83.878 timesteps/s
99.2% CPU use with 40 MPI tasks x no OpenMP threads

MPI task timing breakdown:
Section |  min time  |  avg time  |  max time  |%varavg| %total
---------------------------------------------------------------
Pair    | 445.13     | 702.64     | 789.71     | 316.8 | 58.94
Bond    | 112.6      | 165.21     | 193.88     | 148.3 | 13.86
Neigh   | 65.475     | 68.111     | 70.9       |  14.8 |  5.71
Comm    | 102.32     | 213        | 518.83     | 683.5 | 17.87
Output  | 0.010953   | 0.011638   | 0.028937   |   2.6 |  0.00
Modify  | 22.72      | 33.209     | 53.921     | 187.0 |  2.79
Other   |            | 10.02      |            |       |  0.84

Nlocal:    420.2 ave 458 max 390 min
Histogram: 2 4 5 5 7 9 6 1 0 1
Nghost:    8424.23 ave 8559 max 8232 min
Histogram: 1 2 1 5 5 4 8 8 4 2
Neighs:    247772 ave 267757 max 225901 min
Histogram: 5 1 4 2 4 6 8 4 3 3

Total # of neighbors = 9910898
Ave neighs/atom = 589.654
Ave special neighs/atom = 10.8636
Neighbor list builds = 4441
Dangerous builds = 0
unfix             5

fix               6 all npt temp 300 300 100 iso 1 1 1000
run               400000
WARNING: Bond/angle/dihedral extent > half of periodic box length (../domain.cpp:907)
Per MPI rank memory allocation (min/avg/max) = 16.35 | 17.37 | 18.83 Mbytes
Step Temp Press PotEng KinEng Density 
  500000    303.24248   -354.48915   -6824.0921    15191.986    1.2521724 
  501000    300.87408    54.126185   -7374.2773    15073.332    1.2542581 
  502000    297.31587   -189.92505    -6821.544    14895.071    1.2497973 
  503000    301.73466    839.32523   -6236.8506    15116.446    1.2529104 
  504000    297.46449    255.40951   -7213.6432    14902.517    1.2544525 
  505000    299.53515    676.80791   -7799.8055    15006.254    1.2532172 
  506000    297.21312    889.07754   -7174.3536    14889.924    1.2488396 
  507000    298.65512   -292.62643   -5884.2043    14962.166    1.2531211 
  508000    299.58793    12.510134   -7257.1501    15008.898    1.2513613 
  509000    300.12931    379.32676   -6042.2395     15036.02    1.2577757 
  510000    300.19067    268.15574   -4888.0404    15039.095    1.2515217 
  511000     300.8956   -548.57253    -8307.008     15074.41     1.251091 
  512000    301.50219   -7.5559884   -7134.1381      15104.8    1.2551152 
  513000    300.93253    1215.4183    -6736.993    15076.261    1.2531755 
  514000    296.78744    732.45357    -6509.266    14868.598     1.248858 
  515000    296.47066     94.48974   -6863.0864    14852.728    1.2545164 
  516000    301.34169    823.57225   -6980.9031    15096.759    1.2531058 
  517000    300.04731    118.80487   -6015.9238    15031.912    1.2568098 
  518000    300.90132    684.59032   -5541.8262    15074.697    1.2444584 
  519000    299.69018    205.98539   -6385.8563    15014.021    1.2479911 
  520000    299.99296    292.74801   -5788.7949     15029.19    1.2544692 
  521000    298.55749     189.4256   -5954.3581    14957.275    1.2503461 
  522000     303.4695    696.41597   -6840.9297    15203.359    1.2519017 
  523000    300.19344    247.31613    -7013.559    15039.233    1.2516123 
  524000    300.26054   -707.12062   -7473.1734    15042.595     1.254228 
  525000     302.2487   -208.35198   -6867.5425    15142.199    1.2528707 
  526000     301.5009    979.34421   -7486.3396    15104.735    1.2522207 
  527000    298.50682    138.56474   -7422.0341    14954.736    1.2486411 
  528000    300.21921   -74.309455   -6131.6235    15040.525    1.2508393 
  529000    299.84153    661.32817   -6363.8315    15021.603    1.2497723 
  530000    301.35378    5.2381853   -6736.6004    15097.365    1.2515875 
  531000    298.25782   -168.98698   -6977.4081    14942.262    1.2510138 
  532000    302.91733    613.33433   -7122.5711    15175.696    1.2503559 
  533000    304.06832    472.01782   -6042.9375    15233.359    1.2527491 
  534000    302.68036    246.15928    -6187.452    15163.824    1.2534599 
  535000    299.97504    188.16695   -7310.8955    15028.292    1.2547249 
  536000    302.64173   -259.45601   -6179.4508    15161.889    1.2474387 
  537000    299.21452   -155.74862   -6761.8534    14990.191    1.2512538 
  538000    301.68187    41.583526   -6705.1226    15113.802    1.2520348 
  539000    307.55526     292.3822   -6606.3896    15408.049    1.2487511 
  540000    300.69871    166.83325   -6064.4695    15064.547    1.2537951 
  541000    302.97618    199.47304   -6725.7399    15178.644     1.253499 
  542000    298.38933    666.52387   -5998.2836     14948.85    1.2544423 
  543000    300.57348    1052.6549   -6551.0355    15058.273     1.253161 
  544000    299.04948   -599.23092   -6677.9758    14981.923    1.2504778 
  545000    297.02679   -354.80476   -5868.0485    14880.589    1.2546197 
  546000    300.38814    215.62882   -6664.9888    15048.988    1.2515622 
  547000    296.87628    490.20465   -6558.1482    14873.049    1.2526606 
  548000    299.27379    813.61354   -5254.0174     14993.16    1.2517845 
  549000    301.67127   -10.682433   -6633.5497     15113.27    1.2529658 
  550000    298.18162    824.91131   -6303.5404    14938.444    1.2517789 
  551000     299.8783   -39.491512   -6893.2729    15023.445    1.2498955 
  552000    298.67555   -650.64018   -6915.5649    14963.189     1.251741 
  553000    298.98993    458.60755   -6545.4478    14978.939    1.2555213 
  554000    299.86852      153.193   -7408.8526    15022.955    1.2536131 
  555000    300.29549   -108.32248   -7466.8005    15044.346    1.2560858 
  556000    301.16079    151.10483   -7260.9198    15087.696    1.2540428 
  557000    303.12348    536.45686   -6540.6333    15186.024    1.2509138 
  558000    300.74063    410.19226   -5961.8961    15066.647    1.2472619 
  559000    297.69299    26.480369   -6603.2476    14913.964    1.2526251 
  560000    301.47231    175.43582   -7073.8229    15103.303    1.2539429 
  561000    298.67895   -671.40989    -6669.658     14963.36    1.2484964 
  562000    299.26036   -527.71987   -7338.0391    14992.488    1.2494745 
  563000    300.38289    414.52755   -6636.6172    15048.725    1.2543121 
  564000    295.62463     153.6257   -7036.0743    14810.343    1.2536888 
  565000    300.33439     523.6751   -5955.1536    15046.295    1.2560252 
  566000    298.75267    594.37395   -6169.9912    14967.053    1.2542793 
  567000    301.18828    326.85813   -7268.0086    15089.074    1.2505337 
  568000    301.81434    448.67532   -6143.8243    15120.438    1.2555325 
  569000    299.82434    769.31186   -6800.4893    15020.742    1.2511247 
  570000    299.42977     254.6488   -7082.6294    15000.975    1.2549555 
  571000    302.06748   -103.58233   -7068.5472     15133.12    1.2552519 
  572000    298.27772   -301.34164   -7252.9712    14943.259    1.2567327 
  573000     300.3273   -763.65371   -7190.1735     15045.94    1.2536432 
  574000    298.92302   -165.92662   -6828.6305    14975.587    1.2527975 
  575000    301.06418    1100.2429   -6516.4684    15082.856    1.2485426 
  576000     304.7075    198.05071   -6100.2227    15265.381    1.2517217 
  577000    302.29676    404.13318   -8109.5199    15144.607    1.2484999 
  578000    299.19642   -196.03834   -7309.5403    14989.284    1.2558851 
  579000    296.54294   -307.71715   -6435.0843    14856.349    1.2529929 
  580000    298.87733    205.15909   -5751.0218    14973.298    1.2548659 
  581000    301.75344    781.37693   -6816.0025    15117.387    1.2510759 
  582000    300.00126   -114.72373   -6829.3008    15029.605     1.249404 
  583000    297.83041    614.61899   -7880.3427    14920.849    1.2491817 
  584000    298.78006   -600.33118    -6871.639    14968.425     1.249121 
  585000    298.64174    563.43606   -7078.3841    14961.495    1.2517934 
  586000    297.22119    183.30713   -7007.0288    14890.328    1.2549801 
  587000    301.36866   -379.11929   -6615.1416     15098.11    1.2547159 
  588000    298.82707   -107.42202   -6711.4814     14970.78    1.2501488 
  589000    298.78872    660.69214   -5756.6136    14968.859     1.253076 
  590000    300.72428   -872.25436   -6833.4637    15065.828    1.2533322 
  591000    299.78644    1070.8094   -5700.6713    15018.843    1.2523551 
  592000    297.92185    854.08179   -6993.2312     14925.43     1.250783 
  593000    296.89583   -243.85272   -6480.4358    14874.028    1.2541068 
  594000    300.75598     249.9564   -7949.2764    15067.416    1.2542593 
  595000     297.7959   -6.3311351   -6324.6291     14919.12    1.2538332 
  596000    300.90899    -625.5745   -7034.4999    15075.081    1.2538479 
  597000    299.96996    300.40403    -6653.055    15028.038    1.2561458 
  598000    297.00587   -245.21905   -6202.3267    14879.541    1.2525215 
  599000    298.98044   -708.32228   -7153.7715    14978.464    1.2518926 
  600000    298.71792   -1646.7623   -7084.9491    14965.312    1.2527676 
  601000    303.05962   -288.65162   -7720.8928    15182.824    1.2590616 
  602000    302.16265    -706.1854   -8100.2888    15137.888    1.2523454 
  603000    300.29275    556.04967   -7246.3955    15044.209    1.2569121 
  604000    298.34045     -800.912   -6628.4617    14946.401    1.2516983 
  605000    302.69977   -311.97427   -8263.9339    15164.797    1.2478624 
  606000    301.16007   -781.48175   -6622.8326     15087.66    1.2495613 
  607000    300.15637   -131.59334   -7248.9658    15037.376    1.2498883 
  608000    300.54986    177.62088    -8176.318     15057.09    1.2481592 
  609000    298.48498    83.646611   -7043.0884    14953.642    1.2500658 
  610000    298.41755   -267.78606   -7579.7527    14950.264    1.2541065 
  611000    302.69142    16.197528   -7053.3101    15164.379    1.2508848 
  612000    300.33625    61.774232   -7147.2009    15046.388    1.2539297 
  613000    303.87967    -230.4154   -7758.5879    15223.908    1.2532024 
  614000    297.68672    865.74802   -6991.8439    14913.651    1.2578569 
  615000    304.56506    779.74183   -6554.8249    15258.245    1.2572565 
  616000    299.35478    1020.4438   -6845.3136    14997.218     1.254411 
  617000    304.36816    -565.2418   -7973.3888     15248.38    1.2492567 
  618000    299.59367    285.27283   -6577.2728    15009.186    1.2537363 
  619000    300.51759    -73.87734   -6872.9062    15055.473    1.2551513 
  620000    301.25231    98.793884   -7641.0431    15092.281     1.253346 
  621000     301.1433    152.94419   -7189.5459     15086.82    1.2489162 
  622000    299.33444    377.38675   -7185.5849    14996.199    1.2548103 
  623000    301.47612   -221.26289    -7233.778    15103.494    1.2530213 
  624000    300.74627   -819.24419   -7187.4938     15066.93    1.2543945 
  625000    297.07065    940.93869    -6578.852    14882.787    1.2565023 
  626000    302.00076     182.3914   -6495.6687    15129.778    1.2549112 
  627000    298.99953    139.11587   -6678.1817     14979.42    1.2559449 
  628000    301.85837   -180.16519   -6346.4956    15122.644    1.2529815 
  629000    300.80661   -489.64146   -7202.2257    15069.952    1.2550219 
  630000    303.94153    75.465776    -6442.462    15227.007    1.2487732 
  631000    298.44072    61.050058   -7328.5124    14951.425    1.2487797 
  632000    298.54255    775.03904      -7162.7    14956.526    1.2538855 
  633000    301.61201   -514.00776      -8206.5    15110.302    1.2547597 
  634000    298.96292   -206.01383   -6634.5964    14977.586    1.2446566 
  635000    301.97514    531.00147   -6706.5408    15128.494    1.2546729 
  636000    301.62579   -178.07642   -6695.4647    15110.992     1.253622 
  637000    297.89772    132.99315   -7213.7794    14924.221    1.2538996 
  638000    299.31455    477.14988   -6898.2391    14995.203    1.2498037 
  639000    300.23065   -1070.6447    -7499.205    15041.098    1.2538142 
  640000    299.51885    90.941618   -7068.8662    15005.438    1.2574874 
  641000    300.39586    250.59106   -7777.6883    15049.374    1.2554439 
  642000     302.4032   -289.69572   -6846.9958    15149.939    1.2552299 
  643000     298.9788    462.48729   -6138.4332    14978.382    1.2555558 
  644000    300.72471   -15.008065   -6411.4606    15065.849    1.2542134 
  645000    301.55295   -230.59998   -7736.1015    15107.343    1.2511822 
  646000    300.54329    184.34106   -7297.7653     15056.76    1.2525385 
  647000    295.44101   -266.57215   -8001.4649    14801.144    1.2506245 
  648000    302.66812   -189.83538   -6875.6077    15163.211    1.2526229 
  649000    303.09288     266.0998   -6147.0264    15184.491     1.255383 
  650000     297.6241   -115.31614   -6785.1743    14910.513    1.2508335 
  651000    298.99703    68.012694   -6604.9251    14979.295    1.2504874 
  652000    297.62718    208.25474   -8130.5162    14910.668    1.2510929 
  653000    302.19826    633.16286   -6236.2853    15139.672    1.2574739 
  654000    301.46048    483.76787    -7194.937     15102.71    1.2520064 
  655000    297.72131   -598.41569   -6672.9191    14915.384    1.2548801 
  656000    302.77958    617.38727   -7615.9647    15168.795    1.2535534 
  657000    298.45018   -262.44129   -6176.5119    14951.899    1.2531035 
  658000    300.24441     49.58945   -6430.1909    15041.787    1.2573083 
  659000    298.38683    323.92318     -6937.36    14948.725    1.2559669 
  660000    299.47569    696.63775   -6460.1357    15003.275    1.2555303 
  661000    297.86663     184.4643   -6140.7405    14922.664    1.2577658 
  662000    303.12426   -98.709995   -7182.7695    15186.063    1.2587149 
  663000    301.59066    417.54023   -6965.9634    15109.232    1.2560054 
  664000    301.00821   -603.74526   -7145.6792    15080.052    1.2523965 
  665000    299.92662      773.196   -7425.4122    15025.866    1.2566885 
  666000    298.52979    341.83719   -6483.9834    14955.887    1.2530343 
  667000    299.59266    142.96451   -6293.4926    15009.135    1.2518391 
  668000    300.53259       473.64   -7076.7636    15056.225    1.2511312 
  669000     301.5416   -372.46759   -7838.5549    15106.774    1.2535719 
  670000    299.90326    -913.4586   -6634.5322    15024.696    1.2563662 
  671000    299.96116    436.45641   -6636.5927    15027.596    1.2587443 
  672000    298.83957   -299.70202   -6322.0879    14971.406    1.2529493 
  673000    299.22338    393.13392   -7656.9742    14990.635    1.2520365 
  674000    298.44755    737.46165   -5882.4774    14951.767    1.2596838 
  675000    303.41541     652.1785   -7331.1236    15200.649    1.2592709 
  676000    299.07314    1054.7349   -6012.1062    14983.108    1.2591299 
  677000      301.895    498.81152   -7822.9446    15124.479    1.2584426 
  678000    299.53056   -1005.6435   -6613.6444    15006.024    1.2577856 
  679000    299.25102    176.42945   -6334.3917     14992.02    1.2571494 
  680000     300.1849    242.54908   -6401.6775    15038.806     1.260637 
  681000    299.28967    683.55358   -6534.8268    14993.956    1.2550204 
  682000    297.77678    418.59505   -8351.8325    14918.162    1.2519627 
  683000    300.62358   -242.31321   -6148.1805    15060.783    1.2600203 
  684000    300.49589     111.0534   -7309.7088    15054.386    1.2540425 
  685000    302.94697    358.36225   -7073.8433    15177.181    1.2564863 
  686000    301.88107    110.95602   -7345.0937    15123.781    1.2566752 
  687000    301.01271    194.82905   -6721.4826    15080.277    1.2574135 
  688000    297.44813   -642.04931   -7938.5074    14901.698    1.2468362 
  689000    299.10912    133.18853   -6617.9108    14984.911    1.2527886 
  690000    298.55298    445.41705   -6787.3759    14957.049    1.2552607 
  691000    300.13807   -1173.9648   -7003.7553     15036.46     1.257663 
  692000    296.90984    1148.0586   -6664.0038     14874.73    1.2590133 
  693000    300.39239   -576.81275   -7094.6708    15049.201     1.254127 
  694000    301.13132    1395.1962   -6332.1694     15086.22     1.260902 
  695000     300.2763   -139.51814   -6327.2048    15043.385    1.2516066 
  696000    300.34296   -192.11347   -7122.0087    15046.724    1.2513407 
  697000    296.96906     548.1872   -7690.6244    14877.697    1.2608672 
  698000    301.30303    44.143344   -5560.3389    15094.822    1.2537936 
  699000    302.07663     662.5721   -5846.9647    15133.578    1.2538454 
  700000    299.57566   -68.138028   -5939.4678    15008.284     1.253405 
  701000    302.01832   -205.48206   -6341.1578    15130.657    1.2524025 
  702000    301.02656   -476.56232   -5958.9899    15080.971    1.2532456 
  703000    300.96072    891.70437   -5913.6708    15077.673    1.2566232 
  704000    298.39553   -495.91486   -7891.3697    14949.161    1.2535652 
  705000    299.74414    799.59595   -6400.6491    15016.724    1.2527124 
  706000    300.48413   -512.16041   -7331.6648    15053.797    1.2510726 
  707000    300.00322    312.90965   -6022.4399    15029.704    1.2572656 
  708000    298.27478   -670.84792   -6392.4004    14943.111    1.2532536 
  709000    299.53886   -521.65788   -6576.6151     15006.44    1.2513555 
  710000    299.98892   -61.874242   -7654.8151    15028.987    1.2509396 
  711000    296.72753     -772.587   -6735.3115    14865.597    1.2507534 
  712000    303.04067    534.74112   -6606.7292    15181.875     1.250736 
  713000    298.83736   -104.33389    -6681.962    14971.296    1.2530094 
  714000    301.00803   -51.865484   -6969.7874    15080.043    1.2555204 
  715000    297.20909    331.71922   -6348.4886    14889.722    1.2536409 
  716000    301.13739   -219.07642   -6919.1518    15086.524    1.2534301 
  717000    304.60134    548.23634   -7039.7641    15260.062     1.256856 
  718000    300.72573   -416.07163   -6838.4115      15065.9    1.2478886 
  719000       298.92   -264.38377   -6403.8619    14975.436    1.2575097 
  720000    301.60033   -481.77619   -6889.2405    15109.716    1.2535895 
  721000     299.4956    385.54815   -6844.2825    15004.273    1.2570005 
  722000    299.74606   -470.27852   -7213.9552     15016.82    1.2608569 
  723000    299.79048   -280.19365   -7260.1796    15019.046    1.2538168 
  724000    299.36163   -65.744549   -7365.0239    14997.561    1.2566636 
  725000    304.70445    353.94981   -6692.0276    15265.228    1.2537156 
  726000    299.30126   -10.266012   -6507.2421    14994.537    1.2558308 
  727000    300.08133   -762.33981   -6569.2499    15033.617    1.2526493 
  728000    301.51964    1008.0815   -6362.7703    15105.674    1.2544041 
  729000    298.95596    133.08903   -6818.2698    14977.237    1.2541082 
  730000     299.4276      -284.22   -7441.3314    15000.866    1.2563239 
  731000    298.65594   -92.941516   -6843.2601    14962.207    1.2496495 
  732000    301.12237    62.853023   -6367.4216    15085.772    1.2554121 
  733000    299.89336     176.4798   -5518.6365      15024.2    1.2590664 
  734000     305.0213   -851.41815   -6207.6784    15281.102    1.2541942 
  735000    297.75106   -107.05378   -6256.5534    14916.874    1.2573907 
  736000    301.46533    679.51551   -7264.0163    15102.953     1.259075 
  737000    300.67935   -249.81932   -7202.6037    15063.577    1.2573104 
  738000    299.12378   -314.72068   -7522.2284    14985.645    1.2566534 
  739000    299.41407     599.0673   -6138.3212    15000.188    1.2545087 
  740000    299.05667    222.23698   -7288.0112    14982.283    1.2522157 
  741000    302.16272    693.78162   -5285.4361    15137.892    1.2543652 
  742000    302.08964    1334.5805   -7386.2199     15134.23    1.2538813 
  743000    299.73502    189.56657   -7663.1364    15016.267    1.2471608 
  744000    301.85987    252.79682   -6852.5158    15122.719    1.2495639 
  745000    303.66357   -808.82262   -6292.3135    15213.081     1.253205 
  746000    299.06829   -687.59038   -6905.5215    14982.865    1.2556552 
  747000    297.52481   -516.58248   -7445.3657    14905.539    1.2523363 
  748000    297.43394    97.357853   -7716.0156    14900.987    1.2544006 
  749000    299.69829    195.54583   -7455.4225    15014.427    1.2541523 
  750000    302.83452    236.87537   -8790.4325    15171.547    1.2550456 
  751000    298.69327     359.2267   -5552.6173    14964.077    1.2565337 
  752000    298.56174   -640.02653   -7494.1851    14957.488    1.2524693 
  753000    301.04408    319.65712   -7092.2408    15081.849    1.2542844 
  754000    300.72891    203.31005    -6344.478     15066.06     1.256239 
  755000    300.75344    327.62373   -5860.3597    15067.288    1.2541077 
  756000    298.28123   -724.72044   -7393.6056    14943.435     1.255297 
  757000    297.44675   -27.877843     -6999.98    14901.628    1.2555546 
  758000    300.30983   -128.92503   -7190.1595    15045.064    1.2563559 
  759000    300.82169    71.009507   -7357.6245    15070.708    1.2568034 
  760000    299.53603   -1112.0893   -6117.6187    15006.298    1.2584219 
  761000    303.29145    308.10213   -7574.6267    15194.439    1.2602548 
  762000    297.25783    262.32307   -6044.6261    14892.164    1.2577018 
  763000    301.87777    462.25302   -6617.0298    15123.616    1.2555314 
  764000    297.51371   -608.19807   -6758.4221    14904.983    1.2558267 
  765000    299.74692   -127.84572   -6657.4037    15016.864    1.2541802 
  766000    301.32052       347.18   -6480.2585    15095.699    1.2507648 
  767000      295.614   -409.74522   -6735.7325    14809.811    1.2533853 
  768000     300.6771    251.84358   -5876.3759    15063.464    1.2528812 
  769000    300.81885    450.15183    -5437.463    15070.565    1.2507146 
  770000    301.83471     564.3588   -6861.2587    15121.458    1.2541849 
  771000    302.02029    497.65389   -7391.2572    15130.756    1.2540271 
  772000    293.58867    364.46929   -7425.4007    14708.344       1.2549 
  773000    300.54244    -130.4317   -7478.9896    15056.718    1.2564441 
  774000     300.7149    398.40393   -6430.3963    15065.358    1.2501282 
  775000    300.16034      371.574   -6374.1983    15037.575      1.25285 
  776000    302.10932   -586.32308   -6742.1263    15135.216     1.256899 
  777000     300.6578    108.73241    -6992.272    15062.497    1.2560642 
  778000    305.30388    203.64056   -8139.9508    15295.259    1.2526985 
  779000    300.15494   -240.77292   -8018.2393    15037.305     1.255477 
  780000     301.4987   -311.08185   -7787.1149    15104.625    1.2513506 
  781000    299.21029    1115.1933   -6942.8785    14989.979    1.2558902 
  782000    300.14148   -176.19199   -6634.3951     15036.63    1.2531017 
  783000    302.61029    -81.77673   -8767.5576    15160.314    1.2578235 
  784000    298.61207   -658.03143   -8234.1113    14960.009    1.2600966 
  785000     298.5182   -919.28453   -6789.1194    14955.306    1.2569122 
  786000     302.5409    302.97298   -7298.6151    15156.837    1.2547721 
  787000     300.5527     114.4902   -6726.4251    15057.232      1.25662 
  788000    302.32402    944.65969   -7060.1748    15145.972    1.2554275 
  789000    295.79363   -660.38256   -7677.2577     14818.81    1.2597145 
  790000    300.47217   -436.47649    -6830.581    15053.198    1.2580761 
  791000    299.86943    253.52344   -7652.9617    15023.001    1.2537774 
  792000    299.41802    227.72763   -6541.4497    15000.386    1.2535652 
  793000    303.87272     -2.85429   -6476.5739     15223.56    1.2555513 
  794000    300.20557    628.89773    -7272.036    15039.841    1.2535141 
  795000    303.11574    105.97849   -7323.7283    15185.636    1.2551932 
  796000    299.74754    335.07083   -6964.4917    15016.894    1.2544271 
  797000    302.49259   -123.18642   -7196.8649    15154.417    1.2576501 
  798000    297.92588   -140.72079   -6505.4218    14925.632    1.2599248 
  799000    297.52704   -267.00076   -6695.4451    14905.651    1.2562849 
  800000    301.69374    468.98548   -6771.0706    15114.396    1.2582311 
  801000    299.14055    453.82023   -7041.6896    14986.485    1.2565431 
  802000    297.85798   -1314.9299   -6750.1363    14922.231    1.2540257 
  803000     297.2556   -647.92463     -5932.91    14892.052    1.2502372 
  804000    303.11143   -523.99478   -7246.5491     15185.42    1.2530173 
  805000     301.8753   -154.76451   -6005.9012    15123.492    1.2599726 
  806000    300.92122     7.835364   -7521.4498    15075.694    1.2593372 
  807000    294.78639    211.30162   -6992.6322    14768.348    1.2559038 
  808000    301.89541   -221.74925   -6481.1866    15124.499    1.2534387 
  809000    297.01671    86.075642   -6368.7109    14880.084    1.2564873 
  810000    295.33093   -316.70426   -6325.7923    14795.629    1.2593318 
  811000    301.86281   -850.48427   -7408.3388    15122.866    1.2544751 
  812000    299.55858    -137.4722   -7178.6238    15007.428    1.2582509 
  813000    300.49723    1230.0609   -6976.5559    15054.453    1.2586811 
  814000    297.90186   -1110.8196   -7787.5674    14924.429    1.2570886 
  815000    300.48907   -99.496124   -7590.1102    15054.044     1.255997 
  816000    297.99563   -1499.5297   -7980.0258    14929.126    1.2609469 
  817000    299.15201   -42.429396   -7699.0094    14987.059    1.2560089 
  818000    299.83864   -318.81982   -6945.1963    15021.459    1.2547552 
  819000    302.22092   -100.99506   -6093.1023    15140.807    1.2576455 
  820000    297.88562    80.289633   -5587.6069    14923.615    1.2559994 
  821000     299.5535   -720.85688   -7239.3238    15007.173     1.254181 
  822000    299.60005    436.84186   -6455.7923    15009.505    1.2580867 
  823000    295.75911    948.67919   -7255.3355     14817.08    1.2585344 
  824000    302.40969    1142.7964   -7639.2832    15150.264    1.2619868 
  825000     300.5794    977.24111   -5395.5755    15058.569    1.2537988 
  826000     299.3657   -340.95515   -7404.5588    14997.765    1.2583218 
  827000    297.89931    106.98482   -6818.7826    14924.301    1.2580499 
  828000    297.67475    284.12704   -6827.1753    14913.051    1.2575899 
  829000     299.8495     1096.701   -6951.9464    15022.002    1.2604894 
  830000     298.6082   -47.274545     -7167.95    14959.815    1.2571887 
  831000    298.78202    524.75556   -6734.8447    14968.523    1.2560185 
  832000    301.05511   -155.41561   -6921.0715    15082.402    1.2531621 
  833000    299.64264    1182.2906   -6483.5626    15011.639    1.2574837 
  834000    298.43232     436.6995   -6443.9649    14951.004    1.2556022 
  835000    300.62205    23.988997   -6470.0761    15060.706    1.2584009 
  836000    300.09725   -921.71665   -6438.1695    15034.414    1.2602537 
  837000    301.83205    236.10397   -7568.9577    15121.325    1.2531266 
  838000    299.86694    899.99813   -5565.5639    15022.876    1.2532953 
  839000    299.55625   -47.062049   -6598.9519    15007.311    1.2564748 
  840000    300.36548    909.61159   -6988.7888    15047.852    1.2573548 
  841000     299.8396    509.32589   -5870.3506    15021.507    1.2531406 
  842000    297.33859   -721.86389   -8648.6963     14896.21    1.2515596 
  843000    298.84671   -275.19997   -6124.2234    14971.764    1.2517176 
  844000    299.65409    -338.4116   -6446.7815    15012.213    1.2508599 
  845000    300.31248    958.67524   -7604.8289    15045.197    1.2528928 
  846000    303.79742    1104.1202   -6213.8694    15219.787    1.2601194 
  847000    298.90447    567.49225   -6218.3279    14974.658    1.2543737 
  848000    298.90981   -297.24993   -6804.2462    14974.925    1.2580407 
  849000    302.85743    39.314736    -6951.466    15172.695    1.2556106 
  850000    301.82299    50.725559   -6808.6659    15120.871    1.2581614 
  851000    300.94826      956.382   -8190.2707    15077.049    1.2560642 
  852000    298.46125   -844.04874    -6268.624    14952.454     1.256442 
  853000    300.93205   -178.93203   -6666.9257    15076.237    1.2523257 
  854000    305.26298    1052.9849    -7324.942     15293.21    1.2574506 
  855000    301.06079   -204.79792   -6890.8673    15082.686    1.2547839 
  856000    297.17404   -43.238956   -5017.9537    14887.966    1.2540815 
  857000    299.84055    333.71361   -7055.2037    15021.554    1.2520882 
  858000    300.77016    485.69628    -6236.593    15068.126    1.2566787 
  859000    298.80859    527.94815    -7135.544    14969.855    1.2548816 
  860000    296.58369   -407.85781   -7727.8344     14858.39    1.2564405 
  861000    301.02025    117.62925   -6626.3937    15080.655    1.2590683 
  862000     299.1663    503.36163   -6332.4333    14987.775    1.2591174 
  863000    299.18264    5.2568721    -5577.791    14988.594    1.2569971 
  864000    297.09873   -56.387407   -5730.7223    14884.193    1.2547482 
  865000    300.75182   -274.40413   -5776.9556    15067.207    1.2570311 
  866000    301.59509    621.74249   -6491.2584    15109.454    1.2570023 
  867000    297.45623    -501.4968    -6865.201    14902.103    1.2572246 
  868000    301.12058   -372.94031   -6185.5827    15085.682    1.2546505 
  869000    304.39568    -51.68297   -6470.0829    15249.759    1.2552972 
  870000    302.58141   -337.80736   -5563.0229    15158.867    1.2525827 
  871000    299.27399    642.97064   -6559.2154     14993.17    1.2517551 
  872000    299.00634   -1.3834453    -6702.671    14979.761    1.2554254 
  873000    301.81323   -657.20928   -6733.9495    15120.382      1.25574 
  874000    299.02512   -436.75574   -6912.7061    14980.702    1.2523454 
  875000    299.22338    127.75096   -6624.2174    14990.635    1.2526881 
  876000    300.15232   -181.21648   -6891.4427    15037.173    1.2500255 
  877000    300.56056    223.94597   -6032.0448    15057.626    1.2527478 
  878000    299.00472    -59.08397   -6836.5104     14979.68    1.2584837 
  879000    300.39817    508.14284   -6154.6074     15049.49     1.256421 
  880000     298.8793   -364.57455   -6500.9306    14973.397    1.2543627 
  881000    298.20119   -549.05796   -7130.0895    14939.425    1.2600328 
  882000      298.256    267.59925   -6114.0532    14942.171    1.2593457 
  883000    301.40873    609.02602   -6966.2696    15100.118    1.2566948 
  884000    297.77575   -165.52098   -7540.8201    14918.111    1.2594031 
  885000    300.41153    43.959819   -6290.3247    15050.159    1.2571525 
  886000    299.02668   -980.36506   -7268.0268     14980.78    1.2539404 
  887000    300.00499    103.22346   -6451.9785    15029.792    1.2548242 
  888000    300.17871    106.68803   -5727.8814    15038.495    1.2539001 
  889000    301.37501   -389.26124    -6468.532    15098.428    1.2573343 
  890000    301.70199    487.58119   -7507.9577    15114.809    1.2560684 
  891000    297.12586     1014.975   -5453.5926    14885.553    1.2540175 
  892000    298.37367    288.16697    -6962.756    14948.066    1.2583118 
  893000    303.80627   -900.38903   -6767.1553     15220.23     1.251235 
  894000    299.84124    709.12919   -6262.5352    15021.589    1.2571704 
  895000    300.13462     835.2176    -6766.259    15036.287    1.2588531 
  896000    299.02482    810.69141   -6583.8043    14980.687    1.2565076 
  897000    297.15464    -877.0216   -7300.2952    14886.994    1.2566681 
  898000    299.56747    692.74823   -7593.9998    15007.873    1.2545698 
  899000    301.58581    -686.8571   -6674.8247    15108.989    1.2529064 
  900000     302.2805    852.07164   -6881.5686    15143.792    1.2566588 
WARNING: Bond/angle/dihedral extent > half of periodic box length (../domain.cpp:907)
Loop time of 4756.55 on 40 procs for 400000 steps with 16808 atoms

Performance: 7.266 ns/day, 3.303 hours/ns, 84.095 timesteps/s
99.2% CPU use with 40 MPI tasks x no OpenMP threads

MPI task timing breakdown:
Section |  min time  |  avg time  |  max time  |%varavg| %total
---------------------------------------------------------------
Pair    | 1935.4     | 2792.4     | 3130       | 632.1 | 58.71
Bond    | 448.72     | 655.7      | 764.96     | 290.1 | 13.79
Neigh   | 259.9      | 270.31     | 282.12     |  28.1 |  5.68
Comm    | 462.56     | 873.07     | 1925.6     |1356.9 | 18.36
Output  | 0.043875   | 0.046261   | 0.11608    |   5.2 |  0.00
Modify  | 77.064     | 124.27     | 164.63     | 247.1 |  2.61
Other   |            | 40.75      |            |       |  0.86

Nlocal:    420.2 ave 453 max 391 min
Histogram: 2 1 6 9 4 7 3 6 1 1
Nghost:    8445.58 ave 8556 max 8278 min
Histogram: 2 0 2 5 2 8 8 2 6 5
Neighs:    248602 ave 270649 max 228307 min
Histogram: 3 4 2 7 4 6 6 4 2 2

Total # of neighbors = 9944080
Ave neighs/atom = 591.628
Ave special neighs/atom = 10.8636
Neighbor list builds = 17678
Dangerous builds = 0

write_data         C39H37NO10S_191new.data

Total wall time: 3:19:26
