LAMMPS (16 Mar 2018)
#

# variables available on command line

variable        T index 293.15      # K
variable        P index 5     # MPa
variable	    fe index 1.0302
variable        Patm equal ${P}/0.101325       # atm
variable        Patm equal 5/0.101325       

# global model settings

echo               both
units              real
dimension          3
atom_style         atomic
boundary           p p p

read_data          C39H37O10NS.data
  orthogonal box = (0 0 -70) to (199.869 29.9804 70)
  5 by 1 by 1 MPI processor grid
  reading atoms ...
  33616 atoms
pair_style         lj/cut   12.5
pair_modify        shift yes mix arithmetic

# pair_coeff

pair_coeff 	1	1	0.105	3.851
pair_coeff 	2	2	0.06	3.5
pair_coeff 	3	3	0.06	3.5
pair_coeff 	4	4	0.105	3.851
pair_coeff 	5	5	0.069	3.66
pair_coeff 	6	6	0.105	3.851
pair_coeff 	7	7	0.105	3.851
pair_coeff 	8	8	0.06	3.5
pair_coeff 	9	9	0.06	3.5
pair_coeff 	10	10	0.105	3.851
pair_coeff 	11	11	0.105	3.851
pair_coeff 	12	12	0.274	4.035
pair_coeff 	13	13	0.044	2.886
pair_coeff 	14	14	0.044	2.886
pair_coeff 	15	15	0.044	2.886
pair_coeff 	16	16    0.072896 2.958

# region

region            soall  block  EDGE EDGE EDGE EDGE -22  22 units box side in

# define groups
group		      ggcmc type 16
0 atoms in group ggcmc
group             wall  type < 16
33616 atoms in group wall

neighbor          2.0 bin
neigh_modify      every 1 delay 1 check yes  exclude group wall wall

#MD settings

variable 	      type16 atom "type==16"
group 	            type16 dynamic ggcmc var type16
dynamic group type16 defined
variable          nH2 equal count(type16)
compute           mtem type16 temp/com
compute_modify    mtem dynamic/dof yes

fix               1  wall nve/noforce  # move linear 0 0 0

# gcmc
fix               2 ggcmc gcmc 100 100 100 16 29494  ${T} 1 0.5 region soall pressure ${Patm} fugacity_coeff ${fe} group ggcmc
fix               2 ggcmc gcmc 100 100 100 16 29494  293.15 1 0.5 region soall pressure ${Patm} fugacity_coeff ${fe} group ggcmc
fix               2 ggcmc gcmc 100 100 100 16 29494  293.15 1 0.5 region soall pressure 49.3461633358006 fugacity_coeff ${fe} group ggcmc
fix               2 ggcmc gcmc 100 100 100 16 29494  293.15 1 0.5 region soall pressure 49.3461633358006 fugacity_coeff 1.0302 group ggcmc

fix               3 type16 nvt temp ${T}  ${T}  100
fix               3 type16 nvt temp 293.15  ${T}  100
fix               3 type16 nvt temp 293.15  293.15  100
fix_modify        3 temp mtem
WARNING: Temperature for fix modify is not for group all (../fix_nh.cpp:1404)

thermo            1000
thermo_style      custom step c_mtem pe ke atoms v_nH2

run               1000000
Neighbor list info ...
  update every 1 steps, delay 1 steps, check yes
  max neighbors/atom: 2000, page size: 100000
  master list distance cutoff = 14.5
  ghost atom cutoff = 14.5
  binsize = 7.25, bins = 28 5 20
  1 neighbor lists, perpetual/occasional/extra = 1 0 0
  (1) pair lj/cut, perpetual
      attributes: half, newton on
      pair build: half/bin/atomonly/newton
      stencil: half/bin/3d/newton
      bin: standard
Per MPI rank memory allocation (min/avg/max) = 6.111 | 6.114 | 6.123 Mbytes
Step c_mtem PotEng KinEng Atoms v_nH2 
       0            0            0            0    33616            0 
    1000    295.65155   -12.155324    224.39382    33871          255 
    2000    282.51972    -20.43154    270.78034    33938          322 
    3000    291.37644   -22.700582    337.88014    34006          390 
    4000    301.08943   -30.304655    344.70146    34001          385 
    5000    282.59301   -34.821353    312.07326    33987          371 
    6000    297.72866   -44.790694    359.46185    34022          406 
    7000     278.4445   -45.351065    334.56915    34020          404 
    8000    281.13067   -55.850492    346.17855    34029          413 
    9000    286.63273   -48.326752    334.62127    34008          392 
   10000     324.4458   -42.567289    384.89741    34012          396 
   11000    299.38421   -40.688417    368.53291    34027          411 
   12000    280.96308   -44.824346    352.40575    34037          421 
   13000    313.21691   -44.405923    359.74928    34002          386 
   14000    268.57741   -47.604978    333.40174    34033          417 
   15000    317.42154   -49.301591    406.56505    34044          428 
   16000    277.90088    -43.12298     348.4036    34036          420 
   17000    296.44913   -46.355042    353.57347    34015          399 
   18000    300.27261   -44.797942    359.79884    34018          402 
   19000    307.15315   -43.497907    372.71002    34024          408 
   20000    286.37957   -42.003446    342.44329    34017          401 
   21000    303.29422   -45.457484    376.49295    34031          415 
   22000    278.15285   -52.856375     335.9731    34022          406 
   23000    320.68463   -49.561357    403.01851    34037          421 
   24000    288.82475   -53.401656    374.59736    34051          435 
   25000    317.07493    -56.88281    409.41258    34050          434 
   26000    305.24201   -50.245926    370.98238    34024          408 
   27000    301.43214   -57.440996    357.69431    34015          399 
   28000    303.33023   -50.201259    355.93946    34007          391 
   29000    295.53276   -40.815589    345.58929    34009          393 
   30000    279.44783   -51.216413    321.73504    34002          386 
   31000    294.28394    -53.64227    370.87736    34039          423 
   32000    268.79283   -49.369522    340.59522    34040          424 
   33000    307.31633   -54.047539    395.03299    34048          432 
   34000    296.53955   -45.809178    335.75124    33996          380 
   35000     286.7737   -52.686333    349.15424    34024          408 
   36000    303.44302   -49.350065    374.14024    34030          414 
   37000    292.78202   -55.813646    358.09797    34026          410 
   38000    298.63527   -52.280545     382.2086    34046          430 
   39000    275.87197   -56.963618     353.6261    34047          431 
   40000    288.76943   -48.512246    373.25681    34049          433 
   41000    297.54813   -62.524114    389.81622    34056          440 
   42000    293.47631   -49.369526    355.61395    34023          407 
   43000    282.03679    -51.97609    342.76243    34024          408 
   44000    288.66368   -49.757335    350.15475    34023          407 
   45000    300.25797   -51.793828    388.11454    34049          433 
   46000    301.56359   -50.821197    386.51599    34046          430 
   47000    302.75588   -54.343707    394.20674    34053          437 
   48000    295.91438   -71.875391    395.69416    34065          449 
   49000    295.96447   -66.272183    409.89608    34080          464 
   50000    301.56882   -56.917538    371.51941    34030          414 
   51000    312.31919   -56.939502    354.09628    33996          380 
   52000    285.44844   -54.287215    338.43901    34011          395 
   53000    303.20201   -56.910163     358.9038    34014          398 
   54000    269.49574   -62.157106    343.35594    34042          426 
   55000    285.48673   -56.595231    351.06057    34029          413 
   56000    281.96993    -56.87924    355.05739    34038          422 
   57000     288.3302    -61.34944    402.60803    34085          469 
   58000    284.35605   -63.059542    372.73992    34056          440 
   59000    289.91041   -65.986057     405.0137    34085          469 
   60000     287.9763   -53.720165      365.359    34042          426 
   61000    295.89625    -51.94912    366.36133    34031          415 
   62000    306.33861   -53.889833    402.73912    34056          440 
   63000    282.75595   -53.949552    361.77857    34045          429 
   64000    285.94803   -51.284035    342.18032    34018          402 
   65000    300.67554   -52.876023    363.11186    34021          405 
   66000    278.36929    -54.69188    294.96475    33972          356 
   67000    312.72123   -48.729577    371.03003    34013          397 
   68000    297.18266   -55.807568     373.5054    34037          421 
   69000    284.08809   -61.634047    346.76972    34026          410 
   70000    283.37398   -59.317107    352.50561    34034          418 
   71000    271.56202   -51.820828    351.30301    34049          433 
   72000    285.98262   -58.571082    367.40414    34046          430 
   73000    292.72171   -54.973929    343.01133    34008          392 
   74000    311.00402   -51.140687    361.02245    34006          390 
   75000    298.67094   -57.120154    349.91773    34008          392 
   76000     300.3834   -54.963487    374.31087    34035          419 
   77000    279.02801   -55.715891    374.29717    34066          450 
   78000    281.77554   -54.110383    367.36598    34053          437 
   79000      299.931   -51.852574    378.52815    34040          424 
   80000    283.06352   -53.473843    363.78765    34048          432 
   81000    312.30151   -45.470014    371.39633    34014          398 
   82000    300.88878   -46.891961    371.89579    34031          415 
   83000    295.88755   -46.223337    344.40017    34007          391 
   84000    303.35586   -56.430893    398.04935    34055          439 
   85000    299.73032   -61.360091     390.1742    34053          437 
   86000    292.40111   -52.786088    358.82746    34028          412 
   87000    273.51215   -43.191748    319.37003    34007          391 
   88000    301.54358   -44.846819    342.64799    33998          382 
   89000    287.25452   -51.802751     358.4204    34034          418 
   90000    314.37821   -48.474548    389.87533    34030          414 
   91000    294.11338   -53.290887    373.56357    34043          427 
   92000    275.12444   -56.051215    340.24472    34029          413 
   93000    301.72145    -55.96296    365.59193    34023          407 
   94000    289.61974   -55.382901    366.80889    34041          425 
   95000    276.73423   -51.426268    329.41287    34015          399 
   96000    294.03097   -56.835861    377.80009    34047          431 
   97000    311.05111   -55.858734    374.77965    34021          405 
   98000    294.25836   -47.185092    362.82058    34030          414 
   99000    300.68585   -55.861787    338.20431    33992          376 
  100000    272.88385   -52.797593    319.02455    34009          393 
  101000    286.85642   -54.827092    357.58821    34034          418 
  102000    304.52156   -55.385103    373.28441    34028          412 
  103000    311.67925   -56.660232    414.42421    34062          446 
  104000    301.83367   -56.395857    379.48357    34038          422 
  105000    279.63696   -51.374737    338.56822    34023          407 
  106000    286.67892   -57.512428    357.48395    34035          419 
  107000    273.15231   -51.854305    333.91725    34025          409 
  108000    314.03571   -49.456354     331.2693    33969          353 
  109000    290.54678   -53.539476    343.56274    34012          396 
  110000    289.48134   -51.610826    338.79265    34008          392 
  111000    300.22549   -51.522169    341.00611    33998          382 
  112000    289.52163   -49.433433    324.82422    33993          377 
  113000    295.69662   -56.346228    343.68063    34005          389 
  114000    300.70701   -50.677114     352.9734    34009          393 
  115000    277.89308   -51.250066    315.50905    33997          381 
  116000    283.18755   -44.635139    335.68878    34014          398 
  117000    274.06994   -43.028189     343.8772    34037          421 
  118000     298.4164   -50.360977    352.77539    34012          396 
  119000    308.21755   -51.116103    354.01107    34002          386 
  120000    278.85033   -57.302352    356.91301    34046          430 
  121000    306.25661   -54.032016    373.94714    34026          410 
  122000    293.01774   -48.465602    340.04724    34005          389 
  123000    297.92145   -58.182631    371.31851    34034          418 
  124000    294.69987   -56.553891    349.56261    34014          398 
  125000    274.86162   -60.336859    347.59391    34041          425 
  126000    296.83197    -59.10088    381.03991    34046          430 
  127000    301.99453   -54.220163    382.74333    34042          426 
  128000     304.8404   -57.035586    399.20925    34056          440 
  129000    303.71013   -48.485275    357.74531    34012          396 
  130000    294.33199   -48.702629    377.84726    34047          431 
  131000    310.03273   -49.533389    395.69187    34045          429 
  132000    306.25647   -55.711631    397.40544    34052          436 
  133000    264.51438   -49.267415    339.92919    34048          432 
  134000    291.81482   -60.256896    371.49315    34041          425 
  135000    281.09651     -56.5855    348.75495    34033          417 
  136000    293.54341   -59.522506     371.0357    34040          424 
  137000    278.04763   -63.544901    348.32288    34037          421 
  138000    288.01431   -62.971451    367.01231    34044          428 
  139000    286.42561   -51.124825    369.34168    34049          433 
  140000    302.59969   -52.070766     366.2015    34021          405 
  141000    314.60913   -49.723705    394.07471    34036          420 
  142000    302.28564   -49.894028    396.82948    34057          441 
  143000    306.96331   -53.223371    380.68785    34033          417 
  144000    310.65087   -50.762602    365.19233    34010          394 
  145000    296.03743   -44.580295    366.62347    34032          416 
  146000    279.79965   -45.581583    350.36446    34036          420 
  147000    279.46179   -53.935008    351.26203    34037          421 
  148000     307.7746   -53.959392    396.79413    34049          433 
  149000    297.32972   -57.868617    378.72798    34044          428 
  150000    294.97125   -55.036205    371.06859    34038          422 
  151000    293.26253   -50.783833    349.24583    34016          400 
  152000    289.78678   -50.249473     356.2825    34028          412 
  153000    310.61088   -54.981439    413.95781    34064          448 
  154000    294.74728   -51.145209    368.34149    34036          420 
  155000      283.716   -54.637617    348.49261    34028          412 
  156000    274.70268   -56.848407    349.64627    34043          427 
  157000    290.78255   -56.395116    363.87885    34036          420 
  158000     290.0342   -44.847907     339.5022    34008          392 
  159000    299.79424   -54.184782    334.42785    33991          375 
  160000    301.70809   -56.347943    371.61182    34030          414 
  161000    297.69328   -56.895883    373.34164    34036          420 
  162000    296.32102   -47.170753    379.10867    34046          430 
  163000    278.86831   -50.723904    326.77991    34010          394 
  164000    289.43399   -51.562997      347.723    34019          403 
  165000    315.10252   -50.532123    404.63922    34047          431 
  166000    297.80232   -55.319615    373.34329    34036          420 
  167000     280.2816   -49.037589    348.15512    34033          417 
  168000    287.79969   -58.136006    367.30344    34045          429 
  169000    291.27482   -60.673811    368.91589    34041          425 
  170000    279.16778   -55.967049    352.43282    34040          424 
  171000    298.90879   -51.198953    390.52951    34054          438 
  172000    305.56764   -50.253408    365.58079    34018          402 
  173000    299.46219   -41.261691    340.36557    33998          382 
  174000    270.87092   -49.833067     320.5486    34014          398 
  175000    291.96412   -47.756298    324.43468    33987          371 
  176000    304.68594   -48.921082    377.59992    34031          415 
  177000    307.81558   -56.088638    390.26947    34040          424 
  178000    318.52232   -50.229134    365.82886    34002          386 
  179000    295.19241   -53.424422     381.0323    34048          432 
  180000    297.70187   -55.602705    372.77775    34037          421 
  181000    283.77339   -50.084761    361.39957    34044          428 
  182000    294.55841   -48.437608    343.43879    34008          392 
  183000    300.62032   -51.206297    371.83203    34031          415 
  184000    292.85884   -46.190079    359.88816    34029          413 
  185000    298.16118   -53.601012    368.25575    34031          415 
  186000    304.69872   -46.576018    358.76804    34011          395 
  187000    274.29598   -53.490904    354.09342    34050          434 
  188000    297.06526   -45.594355    346.14953    34007          391 
  189000    313.09535   -48.380275    405.32436    34051          435 
  190000    287.53884   -44.684916    324.51536    33995          379 
  191000     285.0908   -49.583399    365.49586    34046          430 
  192000    303.27766   -48.017947    375.26199    34031          415 
  193000    298.58116   -57.026332    382.94562    34045          429 
  194000    296.91465   -55.561804    364.58468    34027          411 
  195000    323.32114   -46.429856    387.78635    34019          403 
  196000    282.21657   -51.240624    325.66167    34004          388 
  197000     274.0283    -47.14784    322.99742    34012          396 
  198000    283.54933   -55.756166    323.08332    33998          382 
  199000     292.5188    -49.52459    359.66933    34029          413 
  200000    294.98604   -47.761735    364.25312    34031          415 
  201000    277.36647   -49.437929    324.16565    34009          393 
  202000    303.30996    -52.63168    385.11224    34041          425 
  203000    275.57257   -45.493621    322.33896    34008          392 
  204000    300.62039   -43.059541    363.23641    34022          406 
  205000     289.3674   -49.662548    350.62294    34023          407 
  206000    296.83959   -51.987998     378.7965    34041          425 
  207000    300.39292   -43.882734    346.89925    34003          387 
  208000    292.92566   -47.179363    362.05025    34031          415 
  209000    291.66038   -46.464925    333.93079    34001          385 
  210000    288.10493   -44.556204    328.65897    33999          383 
  211000    307.96519   -40.727469    363.99333    34013          397 
  212000    281.91933   -42.499139    349.58668    34027          411 
  213000    294.75614   -49.753473    361.77777    34028          412 
  214000    296.00554   -51.774045    368.04005    34034          418 
  215000    278.66093    -52.44599     359.2081    34048          432 
  216000    287.97448   -50.745782    383.02439    34063          447 
  217000    280.08318   -41.270276    323.64673    34004          388 
  218000    310.20994   -37.363094    388.47598    34037          421 
  219000     298.1219   -40.511864    373.19439    34036          420 
  220000    294.43718   -42.654474    347.82414    34013          397 
  221000    297.21581   -42.294787    352.61723    34015          399 
  222000    289.79173    -44.56203    357.08381    34030          414 
  223000    285.92491   -46.383019    351.99172    34029          413 
  224000     296.7494   -41.007707    353.13844    34014          398 
  225000    300.46143   -43.089077    355.23094    34013          397 
  226000    284.20315   -45.859776    323.32598    33998          382 
  227000    296.35119   -45.421983    368.45665    34033          417 
  228000    286.70721   -44.770911    329.96373    34003          387 
  229000    296.88723   -37.927117    359.78214    34022          406 
  230000    293.28363   -47.531516    338.05229    34003          387 
  231000    298.66423    -47.82454    360.60934    34022          406 
  232000    299.42349   -55.486144    378.22951    34040          424 
  233000    311.59015   -58.714642    399.83632    34046          430 
  234000    317.69784   -48.868763     386.2657    34024          408 
  235000    278.65917   -51.990463    351.67336    34038          422 
  236000    291.78625   -45.001548    341.95003    34009          393 
  237000    297.50039   -38.348286    318.38517    33976          360 
  238000    278.80745   -45.164955     317.1303    33996          380 
  239000     301.1961     -40.1943    343.14298    33999          383 
  240000    313.67187   -35.400856    351.11787    33992          376 
  241000    289.45829   -42.632963    324.58144    33993          377 
  242000    296.99856   -52.691886    357.36583    34019          403 
  243000    281.86195   -51.741852    355.87501    34040          424 
  244000    291.79994   -46.318531    335.87275    34003          387 
  245000    299.97333   -49.383188     340.5239    33993          377 
  246000     295.8419   -50.699869    348.64383    34012          396 
  247000    280.08305   -55.125301    330.64997    34013          397 
  248000    280.61586   -49.939905    354.91006    34041          425 
  249000    279.59013   -54.196413    335.32777    34019          403 
  250000    285.45659   -49.491806     358.9022    34037          421 
  251000    311.18762   -56.239287    412.41383    34060          444 
  252000     297.4588   -54.964949    395.91825    34063          447 
  253000    291.58342   -53.299582    337.83774    34005          389 
  254000    298.66294   -41.026179    343.01578    34002          386 
  255000    288.00131   -43.137604    327.68695    33996          380 
  256000    273.77191   -49.131261    324.63099    34013          397 
  257000    303.74307   -47.100476     346.6198    33999          383 
  258000     288.8343   -46.058386    362.79932    34038          422 
  259000    293.78303   -44.855648    365.03565    34033          417 
  260000    309.10275   -51.276097    394.75455    34042          426 
  261000    281.06375   -50.833728     350.5915    34035          419 
  262000    292.45859   -54.960541    362.80287    34033          417 
  263000    316.95524   -49.856293     373.5648    34012          396 
  264000     292.4495   -46.638773    380.28061    34053          437 
  265000    289.98453   -55.421721    354.68324    34026          410 
  266000    276.93016   -56.460475    357.27391    34046          430 
  267000     297.0868   -52.815777    352.15054    34012          396 
  268000    300.92087    -56.57503    340.89342    33997          381 
  269000    295.42642   -60.061321    348.82723    34012          396 
  270000    289.80221   -67.801553     374.6381    34050          434 
  271000    297.84911   -64.374279    378.14658    34042          426 
  272000    293.18929   -56.658575    377.12454    34046          430 
  273000    291.23975   -48.770208    376.58739    34050          434 
  274000    294.60197   -58.665771     334.3307    33996          380 
  275000    293.81333   -57.749533    361.94252    34030          414 
  276000    291.55935   -46.777121    380.92495    34053          437 
  277000    275.72836   -46.925587     317.6954    34002          386 
  278000    287.65336   -50.000682     341.9272    34015          399 
  279000     321.0685   -51.999801    405.85152    34039          423 
  280000    278.47139   -58.984389    364.16765    34054          438 
  281000    309.61852   -56.172966     403.1889    34053          437 
  282000    289.08901   -54.694106    356.34022    34028          412 
  283000    315.48145   -47.735769    408.72759    34051          435 
  284000    288.06731   -48.302601    340.75639    34013          397 
  285000    294.00081   -52.691482    359.51806    34027          411 
  286000    308.45771   -45.750388    328.28009    33973          357 
  287000    294.31448   -43.796119    347.18321    34010          394 
  288000    266.77795   -44.429948     319.8786    34018          402 
  289000    294.61987   -46.352597    364.21244    34030          414 
  290000    308.35147   -45.620626    373.53975    34023          407 
  291000    288.92981    -41.89329     342.9993    34015          399 
  292000    287.23018   -44.712445    338.94311    34012          396 
  293000    290.23781   -40.625791    345.39232    34016          400 
  294000    283.86442   -45.030922    340.81525    34019          403 
  295000    305.21306   -45.914933     380.7216    34035          419 
  296000    305.76055   -47.962907    354.85503    34006          390 
  297000    305.14395   -50.895979    333.74045    33983          367 
  298000    297.38477   -51.906236    345.49542    34006          390 
  299000    315.03505   -49.651796    380.12198    34021          405 
  300000    290.07062   -56.093174    343.75644    34013          397 
  301000    298.48281   -56.650176     379.8152    34043          427 
  302000    280.46172   -53.290053    349.46801    34034          418 
  303000    288.19434   -47.986407    351.79781    34026          410 
  304000    326.34166   -52.766425    413.59543    34040          424 
  305000    291.93777   -46.816171    348.22266    34016          400 
  306000    297.09414   -57.046089    356.04973    34018          402 
  307000    283.09501   -58.030571    333.16219    34011          395 
  308000     302.4062   -63.468516    378.47542    34035          419 
  309000    284.32209   -60.043998    352.27543    34031          415 
  310000    284.31083   -55.703091    363.45609    34044          428 
  311000    305.45608   -50.663262    375.97933    34028          412 
  312000    279.87802   -62.505049    366.65902    34056          440 
  313000    286.37549   -55.920798    353.19509    34030          414 
  314000    299.38842   -48.146612    380.55082    34043          427 
  315000    313.75659   -53.078094    379.22513    34022          406 
  316000    298.19753   -45.468538    374.68802    34036          420 
  317000    297.41355   -46.976575    358.20324    34021          405 
  318000    302.07297    -49.13719    393.66749    34053          437 
  319000    291.77753   -54.689083    385.84347    34058          442 
  320000    285.78944   -52.269231    398.09821    34082          466 
  321000    289.20014   -49.238743    355.46854    34028          412 
  322000    304.16105   -47.966271     395.5753    34050          434 
  323000    301.77912    -44.43706    351.56991    34006          390 
  324000    287.30742   -52.304778    365.08786    34043          427 
  325000    288.36757   -43.288646    335.56594    34006          390 
  326000    296.39463   -48.717288    345.56663    34007          391 
  327000    294.28033   -43.540471    348.69959    34014          398 
  328000    287.82556     -45.7931    376.38378    34053          437 
  329000     298.9961   -46.247155    369.97727    34032          416 
  330000    278.61409   -52.448059     339.9934    34025          409 
  331000    298.89264   -50.652846    371.81701    34034          418 
  332000    297.42921   -60.561733    366.13344    34027          411 
  333000    298.52573   -54.572854    403.32959    34066          450 
  334000     290.2951   -59.571165     382.5485    34057          441 
  335000    309.69991   -61.776095    418.57977    34070          454 
  336000     290.8535   -54.801207    379.69494    34054          438 
  337000    284.40067   -49.248581    350.10406    34029          413 
  338000    295.88919   -48.639568    357.91266    34022          406 
  339000     287.4297   -52.131912    360.32695    34037          421 
  340000    304.71932   -57.650769    387.32771    34043          427 
  341000    296.21504    -53.25025    351.20509    34014          398 
  342000    282.69271   -56.033584    335.15743    34014          398 
  343000    313.37309   -58.439344    415.22252    34060          444 
  344000    281.55693   -59.552989    365.17019    34048          432 
  345000    301.12487    -52.45221    392.08561    34053          437 
  346000     317.8207   -54.887906    413.58362    34053          437 
  347000     287.9087   -57.786539    358.62575    34034          418 
  348000    296.97417   -59.408917    356.02479    34018          402 
  349000    287.12107   -53.881922    353.72945    34027          411 
  350000    305.27557   -57.033345    362.49751    34015          399 
  351000    288.94354   -52.994282    352.82439    34025          409 
  352000    273.94776   -42.360011     309.0055    33995          379 
  353000    280.64901   -42.149496    325.29575    34005          389 
  354000    310.04841   -47.380763     361.0281    34007          391 
  355000    298.73145   -52.184103    357.34005    34018          402 
  356000    281.49666   -54.355524    343.78936    34025          409 
  357000     305.7329   -58.900949     366.0898    34018          402 
  358000     293.5195   -54.552238    366.46083    34035          419 
  359000    286.67307   -54.553092    368.53438    34046          430 
  360000    301.15354    -50.18371    367.22284    34025          409 
  361000    302.95234   -54.088182    383.06893    34039          423 
  362000    302.71619   -48.778989    372.16035    34028          412 
  363000    300.68457   -55.064914    396.21848    34059          443 
  364000     307.6221   -51.386706    412.04795    34065          449 
  365000    302.01882   -50.530443    362.16062    34017          401 
  366000    291.49925   -50.766772    345.06802    34014          398 
  367000    293.21256   -39.863003    333.27524    33996          380 
  368000    313.14171   -48.682381     341.5356    33982          366 
  369000    294.63965   -45.847014     341.4766    34005          389 
  370000    298.85661   -52.628346     362.9861    34024          408 
  371000      320.806   -59.637469    403.49597    34038          422 
  372000    291.38209   -52.979579    354.14289    34024          408 
  373000    285.47643   -50.803047    353.54542    34030          414 
  374000    290.21028   -67.954443    354.28708    34026          410 
  375000    310.48259   -52.992709     388.2935    34036          420 
  376000     298.6132   -52.619126    356.31277    34016          400 
  377000    290.12407   -58.235109    357.01138    34027          411 
  378000     296.6479   -53.275913    383.43036    34050          434 
  379000    298.15615   -47.844113    375.87939    34039          423 
  380000     277.8904   -50.986455    345.61795    34033          417 
  381000    288.62976   -48.750907    359.56287    34033          417 
  382000    321.42639   -52.768633    396.60198    34030          414 
  383000    290.16187   -52.181756    372.64735    34047          431 
  384000    254.45111   -54.887489    327.13682    34048          432 
  385000    286.38333   -55.964183    350.77681    34026          410 
  386000      288.098   -53.937471    358.71391    34034          418 
  387000    281.81815   -51.074919    359.88065    34045          429 
  388000    282.18757   -46.869448    353.54737    34035          419 
  389000     292.8274   -55.425641    349.14791    34016          400 
  390000     304.3808   -54.598806     379.0228    34034          418 
  391000    311.70916   -52.213612     365.7608    34010          394 
  392000    296.68492   -53.651437    356.69815    34020          404 
  393000    305.82026   -52.603398     371.9996    34025          409 
  394000    291.61763   -62.802489    356.43694    34027          411 
  395000    297.23184   -54.244433    368.32769    34031          415 
  396000    287.43574   -56.852305    372.00214    34051          435 
  397000    274.28725   -50.335177    364.49423    34062          446 
  398000    301.45019   -48.596846    411.47202    34074          458 
  399000    294.87924   -54.877959    366.94856    34032          416 
  400000     267.1093   -50.751205    335.79548    34038          422 
  401000    302.30375   -54.140535     373.9621    34029          413 
  402000    307.40885   -57.785866     403.8644    34057          441 
  403000     297.6735    -59.62821     397.6717    34065          449 
  404000    303.55567   -52.182035    408.78326    34068          452 
  405000     291.0348   -53.232813    367.55313    34040          424 
  406000    286.90946   -54.685773    351.34065    34025          409 
  407000    303.07776   -55.333588    344.71306    33998          382 
  408000    302.67389   -48.987974    368.43502    34025          409 
  409000    270.56055   -46.702609    329.96813    34024          408 
  410000    297.33318   -45.493259    380.64714    34044          428 
  411000    276.04009   -61.454676    338.32931    34028          412 
  412000    322.42071   -53.399369    397.90979    34031          415 
  413000    266.25637   -57.322097    338.38606    34043          427 
  414000    292.53339   -58.622335    386.12859    34055          439 
  415000    274.84029   -59.098443    330.03833    34018          402 
  416000     291.0613   -60.004046    355.49518    34025          409 
  417000    292.35487   -57.441917    395.06506    34069          453 
  418000    287.74744   -62.374289     365.9622    34043          427 
  419000    301.10137     -61.2165    384.57253    34044          428 
  420000    276.33042   -58.783279    344.51878    34035          419 
  421000    288.94122   -51.812015    333.87662    34004          388 
  422000    310.26548   -52.029903    363.92826    34010          394 
  423000     284.6721   -58.249254    342.81567    34021          405 
  424000    284.84323   -59.928509    354.72824    34034          418 
  425000    278.26442   -58.944277    353.97615    34043          427 
  426000     281.2767   -60.198885     372.8823    34061          445 
  427000      282.679   -66.020389    414.21823    34108          492 
  428000    298.53081   -65.340249    424.98364    34093          477 
  429000    292.25381   -53.969164    383.46469    34057          441 
  430000    284.67994   -52.841283    358.50462    34038          422 
  431000    293.05655   -53.778026    351.28112    34019          403 
  432000    284.07679   -55.930116    381.37324    34066          450 
  433000     280.5589   -65.261939    364.99789    34051          435 
  434000    300.29795   -60.436346    363.59046    34022          406 
  435000    294.92263   -49.753226    363.06128    34028          412 
  436000    284.07675   -50.515575    351.24704    34031          415 
  437000    295.56078     -54.5326    380.65607    34049          433 
  438000    277.38542   -57.735856    359.20398    34049          433 
  439000    301.48769   -62.446642    396.51778    34058          442 
  440000     298.6357   -50.402745    376.52464    34039          423 
  441000    291.70222   -45.288311    368.52684    34040          424 
  442000    273.73178   -53.222961    357.45192    34051          435 
  443000    293.80334   -47.124172    350.98413    34016          400 
  444000    306.96628   -48.618695     356.2701    34006          390 
  445000    288.30391   -47.206125    334.06168    34005          389 
  446000    301.81336   -48.680929    355.01191    34011          395 
  447000    302.75233   -45.644035    350.36969    34004          388 
  448000    288.79526    -42.60962     346.8119    34019          403 
  449000     323.4165   -46.605165    413.84946    34046          430 
  450000    311.77086   -52.704663    388.34666    34034          418 
  451000    300.97215   -52.231996    363.70021    34021          405 
  452000    303.39881   -50.449368    389.35698    34046          430 
  453000    285.67688   -42.221445    345.60896    34022          406 
  454000    275.72522   -55.237893    333.81863    34022          406 
  455000    292.00362   -65.165716    389.47936    34063          447 
  456000    294.17143   -58.929618    373.20591    34042          426 
  457000     301.4206   -59.330008    365.80457    34024          408 
  458000    299.73848   -55.206213    372.08245    34033          417 
  459000    278.38001   -53.556915    372.79134    34066          450 
  460000    302.44178    -57.29273    363.51217    34020          404 
  461000    290.74011   -53.095733    353.97407    34025          409 
  462000     280.4324    -54.50969    334.15443    34015          399 
  463000    307.94775   -47.356903    350.77901    33997          381 
  464000    273.28169   -50.072446    309.02399    33996          380 
  465000    296.30988   -41.947119     354.3365    34016          400 
  466000    274.57693   -49.678592    344.25405    34037          421 
  467000    289.99975   -52.668677    359.99128    34032          416 
  468000     285.9845    -46.87947    358.21904    34037          421 
  469000     293.4798   -59.606935    357.19802    34025          409 
  470000    311.95854    -50.96194    406.36423    34053          437 
  471000     295.4319    -52.57756    362.87631    34028          412 
  472000    288.94963   -49.205262    365.60363    34041          425 
  473000    276.71412   -51.534619    376.84275    34073          457 
  474000    294.04329   -47.339122       327.96    33990          374 
  475000    283.93164   -49.710394    354.98823    34036          420 
  476000    313.69879   -51.280332    399.70192    34042          426 
  477000      283.609   -50.739411    358.44222    34040          424 
  478000    293.53134   -53.315102    369.26663    34037          421 
  479000    289.84238   -51.630791    365.73453    34040          424 
  480000    287.61298   -47.671186    333.37608    34002          386 
  481000    303.87255   -45.282944    310.14316    33959          343 
  482000    304.28563   -47.173461    334.96398    33986          370 
  483000    279.59682   -43.846816    334.98054    34018          402 
  484000    296.79588   -46.035738    351.20053    34011          395 
  485000    290.75742   -50.025276     353.1876    34024          408 
  486000    291.42279   -45.277177     336.6907    34002          386 
  487000    315.67972   -47.191937    346.72942    33985          369 
  488000    295.24715   -44.727488    357.09778    34022          406 
  489000     291.4546   -47.702222    361.92449    34033          417 
  490000    297.27626   -48.481557    357.47656    34020          404 
  491000    286.46808   -45.553238    331.03598    34004          388 
  492000    276.25009   -41.194887    322.61153    34008          392 
  493000    297.62747   -46.984753     376.5559    34041          425 
  494000    288.71039   -50.273196    342.07849    34013          397 
  495000    306.43319    -53.71023    369.04188    34020          404 
  496000    314.82932   -60.546394    389.49153    34032          416 
  497000    295.93731   -53.895754    365.89639    34031          415 
  498000    283.30731    -57.36886    354.36822    34033          417 
  499000    313.64929   -46.980363    385.31331    34028          412 
  500000    287.61403   -38.665029     325.9973    33996          380 
  501000    285.14508   -46.173842    307.06569    33978          362 
  502000    272.25518   -35.668533    315.28805    34005          389 
  503000    297.97076   -49.141116    378.79178    34041          425 
  504000    288.15368   -45.204413    362.53204    34038          422 
  505000    290.67835   -53.797144    359.78916    34031          415 
  506000    311.44621   -50.756027    372.12602    34017          401 
  507000    303.96353   -51.785643    379.91861    34035          419 
  508000    304.96429   -46.629698    359.30445    34012          396 
  509000    304.99065   -44.741231    361.02841    34014          398 
  510000    268.36223    -41.27365    349.46381    34053          437 
  511000    298.42631   -49.773331    371.01834    34034          418 
  512000     302.5655   -51.337687    381.02846    34039          423 
  513000    315.53177   -56.363343    387.78283    34028          412 
  514000    281.22821   -50.850115    345.51754    34029          413 
  515000    289.23279   -50.867229    317.17408    33984          368 
  516000    313.93527   -43.804414    363.81667    34005          389 
  517000    313.73112   -48.496185    369.73651    34009          393 
  518000    296.75401   -54.148199    371.50343    34036          420 
  519000    283.32049   -54.983871    354.60568    34036          420 
  520000    283.32759   -61.794347    365.93492    34049          433 
  521000     316.7603   -51.530354    393.81783    34033          417 
  522000     306.3352   -59.746048    388.21996    34042          426 
  523000     291.7648   -53.405541    380.29083    34054          438 
  524000    298.60879   -52.502454    358.01922    34019          403 
  525000    296.67918   -46.955896    349.98905    34011          395 
  526000    277.66923   -45.985583    343.99976    34031          415 
  527000    287.41236   -49.234794    357.89981    34030          414 
  528000    293.22691    -46.89289    342.65059    34009          393 
  529000     307.5445   -47.774225    378.67826    34029          413 
  530000    286.06236   -48.936991    329.47479    34003          387 
  531000    296.03879   -51.555291    366.77285    34032          416 
  532000    312.02718   -47.810729    369.58979    34012          396 
  533000    272.19196   -45.275573    332.36424    34026          410 
  534000    298.00959   -46.316434    350.00171    34010          394 
  535000    283.96481   -39.562934    297.74286    33967          351 
  536000    288.18696   -45.868622    339.01519    34010          394 
  537000    305.97724   -56.599218    384.02119    34037          421 
  538000    285.46588   -56.048112    356.45294    34035          419 
  539000    284.68708   -60.333162    330.72561    34004          388 
  540000    299.16788   -53.964737    342.68193    33999          383 
  541000    291.82349   -56.773233    351.87497    34021          405 
  542000    282.50464    -54.18874    324.49698    34002          386 
  543000    293.94235    -50.13199     361.7061    34029          413 
  544000    281.89285   -54.070311    344.74335    34027          411 
  545000    306.12392   -48.020375    369.79981    34022          406 
  546000    278.69747   -50.518649    322.56946    34005          389 
  547000    301.80316   -51.737051    365.55497    34023          407 
  548000    283.05691   -62.427302    374.41766    34060          444 
  549000    286.24977   -57.514367    374.20289    34055          439 
  550000    321.11776   -49.183372    375.75899    34009          393 
  551000     278.6808   -47.823755    334.57164    34018          402 
  552000    282.13937   -46.873634    332.54933    34012          396 
  553000    291.86838   -41.117504    362.22386    34032          416 
  554000    295.20777   -47.848196    343.88637    34007          391 
  555000    302.57844   -47.809894    336.82636    33990          374 
  556000    307.22349   -46.528154    348.51622    33997          381 
  557000    298.85629   -49.409144    331.72588    33988          372 
  558000    285.17173   -47.424839    339.34888    34016          400 
  559000     279.7944   -51.679763    338.77487    34023          407 
  560000    290.57203   -49.275931    360.66198    34033          417 
  561000    300.11982   -45.853553    337.63106    33993          377 
  562000    289.28541   -43.212604    355.77452    34028          412 
  563000    262.83466   -56.209507    315.61851    34018          402 
  564000    293.97275   -56.531131      385.024    34056          440 
  565000     280.4605   -57.421619    385.56869    34077          461 
  566000    311.90725   -54.778566    395.23757    34042          426 
  567000     308.0885   -56.524369    395.80118    34046          430 
  568000    267.87883   -59.052193    311.66901    34007          391 
  569000    283.86015   -52.559996    327.12919    34002          386 
  570000    283.72145   -54.013481    367.59175    34050          434 
  571000    307.34062   -53.865202    394.76626    34047          431 
  572000    305.64079   -51.158355    396.56196    34052          436 
  573000    286.05216   -47.070093     354.0886    34031          415 
  574000    288.19606    -48.27759    353.16984    34028          412 
  575000    302.68339   -52.203723    339.39387    33993          377 
  576000    269.43551   -54.086548    353.02299    34054          438 
  577000    301.99636   -61.770927    381.46285    34040          424 
  578000    283.64459   -62.717742     356.2916    34038          422 
  579000    284.43175   -59.145521    344.61388    34023          407 
  580000    277.13582   -59.087688    354.24176    34045          429 
  581000     297.1415   -56.154275     389.8663    34056          440 
  582000    275.11145   -55.009613    379.24362    34079          463 
  583000     293.4594   -55.772667    359.26311    34027          411 
  584000    286.50418    -56.16545    342.30229    34017          401 
  585000    298.17853    -55.18737    352.43191    34013          397 
  586000    301.20798   -60.593498      374.364    34033          417 
  587000     287.8053   -53.013677    338.94221    34011          395 
  588000    294.89177   -55.887529    353.54968    34018          402 
  589000    293.87611    -64.73925    343.72098    34009          393 
  590000    296.07672   -64.609684    378.44649    34045          429 
  591000    302.98538   -68.999803    397.61889    34057          441 
  592000    304.19898   -54.000654    379.74189    34034          418 
  593000    288.98456   -53.508973    339.89187    34011          395 
  594000    290.49856   -47.873553    335.54202    34004          388 
  595000    313.99869   -54.269762    396.11826    34040          424 
  596000    282.18032   -56.917699    334.80464    34015          399 
  597000     289.7951   -59.280547    380.36002    34057          441 
  598000    288.37957   -64.528322    388.12592    34068          452 
  599000    291.03086   -64.641804    390.80033    34065          449 
  600000    299.29785   -59.724308    382.61838    34040          424 
  601000    308.79092   -61.955594    392.33672    34043          427 
  602000    282.54845   -60.760941    359.14431    34043          427 
  603000    298.88889   -52.504036       351.78    34010          394 
  604000      317.064   -56.433763    415.06137    34056          440 
  605000     302.8075   -54.819569    419.76385    34081          465 
  606000    293.49062   -68.697314    379.11949    34049          433 
  607000    294.39714   -59.052626    368.98431    34036          420 
  608000    290.53622   -60.436902    382.42818    34058          442 
  609000    288.71598   -54.760517     353.6942    34027          411 
  610000    294.85126   -49.329747    353.69664    34018          402 
  611000    307.17684   -45.636082    372.47066    34023          407 
  612000    308.02371   -43.930445    373.37734    34023          407 
  613000    293.77539   -44.387114    348.32075    34014          398 
  614000    279.59934   -40.260449     339.3996    34024          408 
  615000    306.31723   -55.062676    365.72759    34017          401 
  616000    302.71293   -44.785408    360.39647    34016          400 
  617000    298.44662   -52.220413    374.19984    34037          421 
  618000    269.26326    -54.11649    319.24497    34013          397 
  619000    306.62094    -45.55728    363.48865    34014          398 
  620000    323.54461   -47.424366    379.12326    34010          394 
  621000    308.95846   -54.290061     380.4809    34030          414 
  622000    263.95888   -47.050687    334.46408    34042          426 
  623000    318.97686   -49.664586     389.9737    34027          411 
  624000    280.75259   -39.612588    337.08687    34019          403 
  625000    305.65453   -39.431255    323.75138    33972          356 
  626000      316.402   -43.779716    344.63719    33981          365 
  627000    291.04425   -43.351915    328.29583    33995          379 
  628000    312.78602   -47.821222    370.35478    34014          398 
  629000    291.85077   -47.435621    337.33845    34003          387 
  630000    293.79206   -52.844139    369.62955    34038          422 
  631000    289.49599   -51.198413    333.66848    34003          387 
  632000     293.7149   -50.736716    377.71048    34047          431 
  633000      275.976   -50.965572    329.28764    34016          400 
  634000    293.51099   -58.831725    358.43135    34024          408 
  635000    300.81087   -53.316173    371.08948    34030          414 
  636000    297.29291   -56.901656    386.16208    34048          432 
  637000    280.66039   -54.774818     371.3841    34060          444 
  638000    296.62109   -55.915615    392.90145    34061          445 
  639000     293.6575   -54.905769    340.05197    34005          389 
  640000    277.92673   -49.401088    318.60149    34001          385 
  641000    284.22791   -58.634718    341.86752    34018          402 
  642000    298.97639   -55.017526    357.99017    34018          402 
  643000    270.20852   -56.492003    332.83763    34028          412 
  644000    292.67628   -55.749068    376.91801    34048          432 
  645000    293.14881   -57.431829    381.98158    34054          438 
  646000    328.36106   -58.240686    380.41741    34005          389 
  647000    291.42528   -55.302457    335.18068    34002          386 
  648000    306.85913   -52.051539    342.57684    33991          375 
  649000    306.35438   -50.057524    379.17013    34032          416 
  650000    301.02905   -55.648985    387.84975    34047          431 
  651000    293.46954   -52.438291    364.18193    34033          417 
  652000    281.07212   -43.514166    341.55133    34024          408 
  653000    301.97201   -51.954795     361.2181    34018          402 
  654000    316.20497   -59.423129    394.76135    34035          419 
  655000    293.17681   -51.146907    366.02707    34035          419 
  656000    314.97974   -52.379123    392.85895    34034          418 
  657000    289.52715   -58.497342    359.16394    34033          417 
  658000    313.17337   -60.123627    389.31985    34033          417 
  659000    288.02246   -58.548767    348.47142    34022          406 
  660000    288.85088   -61.795907    354.09009    34028          412 
  661000    300.76202   -62.328754    353.33124    34011          395 
  662000    304.41684   -56.351122    389.27196    34045          429 
  663000    281.35722    -53.72909    332.65307    34012          396 
  664000    284.91321   -56.705222    349.07966    34027          411 
  665000    294.13973   -53.242869     359.5333    34024          408 
  666000    286.70372    -45.96038    357.83217    34033          417 
  667000    286.91358   -53.729789    348.49941    34024          408 
  668000    313.91018   -62.283522     390.2138    34034          418 
  669000    298.11225    -54.11162    381.38533    34045          429 
  670000    311.05157   -54.101074    405.25933    34054          438 
  671000    298.27754   -49.806572     360.4173    34022          406 
  672000    281.05096    -57.20031    338.66309    34020          404 
  673000    281.67747   -53.502332    335.77135    34015          399 
  674000    303.43876   -51.932506     372.0592    34027          411 
  675000    294.65573   -56.244171    337.70131    33999          383 
  676000    289.05314   -48.248197    356.25298    34030          414 
  677000    283.76032   -49.784596    364.53163    34045          429 
  678000    288.59929   -43.959154    322.16447    33989          373 
  679000     296.0608   -54.716216     365.2615    34030          414 
  680000    280.70483    -58.56582    366.92211    34055          439 
  681000     266.1969   -49.565595    322.06134    34022          406 
  682000    291.31294    -55.74392    377.20998    34049          433 
  683000     289.7768   -55.737359    366.63208    34041          425 
  684000    303.50321   -63.172958    399.91246    34056          440 
  685000    296.44567   -66.969603    403.38657    34073          457 
  686000    273.36975   -59.652862    353.14442    34050          434 
  687000    290.97276   -56.058278    357.19321    34028          412 
  688000    299.06129   -53.317049    351.30238    34011          395 
  689000    293.49038   -47.976928    364.50231    34033          417 
  690000    282.18796   -60.779685    360.24713    34045          429 
  691000     293.8277   -58.004804    375.48773    34045          429 
  692000     306.8238   -54.841997    372.78513    34024          408 
  693000    317.56762   -53.700238    381.99544    34020          404 
  694000    261.13744   -54.382803    327.82984    34036          420 
  695000    300.16267    -57.20841    367.83084    34028          412 
  696000    289.34377   -62.390727    370.59225    34046          430 
  697000     285.3445   -60.664341    348.15369    34026          410 
  698000    312.23231   -61.718466    426.42694    34075          459 
  699000    297.74951   -60.097752    383.48135    34049          433 
  700000    282.46654   -52.164859    361.61786    34046          430 
  701000    313.25672   -50.091534    391.29668    34036          420 
  702000     278.3417   -50.251682    331.50829    34016          400 
  703000    313.04082   -47.305201    366.01378    34009          393 
  704000    296.45391   -52.174128    382.05381    34047          431 
  705000    292.94968   -56.197518    354.87494    34022          406 
  706000    295.84069   -56.783383    368.26552    34034          418 
  707000    270.38727   -65.453019    335.12911    34032          416 
  708000    301.09767   -51.011787    351.06814    34008          392 
  709000     294.9563   -56.319951     364.3896    34030          414 
  710000    286.68391   -57.001216    354.77013    34032          416 
  711000     305.2421    -50.71844    368.12884    34020          404 
  712000    302.25935   -51.208383    380.90673    34039          423 
  713000    284.35273   -55.386004    362.38952    34043          427 
  714000    298.63201   -56.943473    396.71585    34061          445 
  715000    293.69786   -57.637073    360.45483    34028          412 
  716000    308.67606    -52.92049    383.43919    34031          415 
  717000     287.5374    -45.62561    347.60773    34020          404 
  718000    275.74617   -47.648306    317.25206    34002          386 
  719000    306.52327   -46.757441    384.61775    34037          421 
  720000    304.40699   -57.218084    386.95788    34040          424 
  721000    284.54563   -58.547102    347.76565    34026          410 
  722000    257.70833   -53.857999    324.14734    34035          419 
  723000    284.29549   -52.331709    355.88657    34035          419 
  724000    302.00842   -48.022647    374.25236    34032          416 
  725000     290.3926   -53.511856    357.98589    34028          412 
  726000    279.22695   -44.350876    326.11223    34008          392 
  727000    277.12173   -44.823371    338.34223    34022          406 
  728000    307.48682   -44.841199    372.74954    34023          407 
  729000    302.48953   -46.081593    376.52013    34033          417 
  730000    268.64335   -44.411415    331.89106    34030          414 
  731000    311.82108   -48.918788    421.39955    34069          453 
  732000    278.17944   -45.107916    324.95496    34007          391 
  733000    282.38322   -56.055895    364.27058    34049          433 
  734000    306.97644   -52.813915     393.5731    34047          431 
  735000    291.11664   -48.247803    333.31178    34000          384 
  736000    302.58959    -52.56531    372.06783    34026          410 
  737000    289.54089   -50.337907    357.50688    34031          415 
  738000    293.85009    -48.60731    349.23848    34015          399 
  739000    299.12686   -54.709281    380.19243    34043          427 
  740000    299.53372   -45.953523    381.46988    34044          428 
  741000    280.53393   -48.897822    364.74613    34052          436 
  742000     284.7586   -43.646371    370.46387    34053          437 
  743000    279.29401   -56.341309    359.80917    34049          433 
  744000    305.72674   -46.715731    368.36205    34021          405 
  745000    278.28139   -50.322995    331.70871    34016          400 
  746000    293.47939   -49.438307    358.48017    34025          409 
  747000    287.96922   -51.868383    353.19504    34028          412 
  748000    271.43615    -52.31325    337.28941    34033          417 
  749000    282.90573   -54.175539     347.6698    34028          412 
  750000    299.09473   -40.861949    359.58873    34020          404 
  751000    284.96524   -50.049234    335.49836    34011          395 
  752000    286.47561   -51.127109    353.74117    34029          413 
  753000    288.78429   -50.769272    354.70532    34029          413 
  754000    299.67933   -45.491688    359.54378    34018          402 
  755000    319.59022    -44.20728    376.35662    34012          396 
  756000    283.11915   -45.440037     346.7343    34026          410 
  757000    264.97043   -50.002011    306.22236    34004          388 
  758000    292.36242   -46.632971    335.06619    34001          385 
  759000    288.40659   -47.256641    342.22077    34015          399 
  760000    322.26336   -41.985343    360.62544    33991          375 
  761000     302.8872   -49.557429    354.23216    34009          393 
  762000    296.67849    -63.79711    369.21609    34034          418 
  763000    276.12873   -54.584608    342.81942    34033          417 
  764000    286.79236   -52.750383    358.45715    34035          419 
  765000    283.07282    -54.98712    337.88902    34017          401 
  766000    292.35784   -55.376685    353.00748    34021          405 
  767000    286.43179   -53.124978      339.173    34014          398 
  768000    292.20086   -55.507892    373.77644    34045          429 
  769000    302.31619   -52.012306    389.82922    34049          433 
  770000    294.71104    -54.52037    363.68379    34029          413 
  771000    293.74353   -49.915617    340.29362    34005          389 
  772000    299.19188   -55.954017     355.1549    34014          398 
  773000    280.47052   -48.088511    347.62456    34031          415 
  774000     301.9788   -51.032546    378.37843    34037          421 
  775000    293.81976   -50.384609    347.14524    34013          397 
  776000    293.94273   -56.131173    384.41856    34054          438 
  777000    310.98708   -57.216592    376.67544    34023          407 
  778000    289.82739   -55.725199    357.22795    34030          414 
  779000    294.43968   -50.791025    386.29988    34057          441 
  780000     294.1547   -49.170858    349.13087    34015          399 
  781000    277.15453   -53.095524    325.79604    34010          394 
  782000    310.46941   -46.036711    354.81105    34000          384 
  783000     305.6346   -47.352501    360.94632    34013          397 
  784000    295.86637    -44.65103    319.26503    33979          363 
  785000    291.11367   -47.532687    320.66355    33986          370 
  786000    298.99001   -49.528826    376.58303    34039          423 
  787000    276.63635   -48.931404    326.16057    34011          395 
  788000    298.61227   -52.066725    389.63116    34052          436 
  789000    305.86748   -57.615246    377.87575    34031          415 
  790000    298.34871   -53.908863     353.5952    34014          398 
  791000    307.71964   -51.478414    386.84713    34038          422 
  792000    299.53098    -44.48825     367.3336    34028          412 
  793000     311.6811   -47.031374    369.92215    34015          399 
  794000    311.45295   -54.315108    376.99505    34023          407 
  795000    285.83927    -46.30377    329.61023    34001          385 
  796000    314.06711   -50.332265    375.52738    34016          400 
  797000    287.94603   -50.524505    344.75201    34018          402 
  798000    292.12443   -55.556171    358.46069    34028          412 
  799000    305.21643   -48.838178    356.05123    34008          392 
  800000    283.31908   -50.215234    341.27031    34021          405 
  801000    299.27736    -52.78331    376.51513    34038          422 
  802000    276.51891   -53.378892    342.06984    34031          415 
  803000    273.27154   -50.126126    329.64978    34021          405 
  804000    308.39677   -48.560604     352.4971    34000          384 
  805000    304.93391   -47.657531    351.09335    34002          386 
  806000    299.33854   -43.066177    361.51501    34021          405 
  807000    283.85305   -47.146119    346.94411    34027          411 
  808000       280.21   -48.623426    345.19392    34029          413 
  809000    302.83911   -55.852164    401.94464    34061          445 
  810000    278.46645   -51.866953    340.06882    34026          410 
  811000    270.36062   -50.432517    354.01111    34056          440 
  812000    290.25333   -52.976763    374.90785    34050          434 
  813000    311.22222    -53.57202     395.7571    34043          427 
  814000    278.44933   -54.720956    326.45305    34008          392 
  815000    300.80003   -55.324797    361.09962    34019          403 
  816000    295.62406   -54.443114    361.93547    34027          411 
  817000     281.0462   -64.483078    349.43672    34034          418 
  818000    303.83746   -56.439129    374.46304    34030          414 
  819000    304.73137   -54.602374    379.82627    34035          419 
  820000    290.03932   -52.803243    362.82053    34035          419 
  821000    285.65928   -49.513797    332.43787    34007          391 
  822000    293.81981   -54.543795    384.72312    34055          439 
  823000     284.2975   -49.103728     353.2227    34033          417 
  824000     306.4243   -56.565789    398.24304    34052          436 
  825000    288.45093   -46.871425    361.16745    34036          420 
  826000    301.49586   -47.288852    364.94077    34023          407 
  827000    286.32489   -58.104005    372.39675    34053          437 
  828000    282.74638   -48.271108    374.58253    34060          444 
  829000    292.66256   -57.942056    361.78928    34030          414 
  830000    290.80962   -52.260496    343.90802    34013          397 
  831000    288.80315   -51.658263    351.67577    34025          409 
  832000    300.05013    -54.53699    365.56733    34025          409 
  833000    274.93756   -50.710093    345.95266    34038          422 
  834000    294.69674   -52.220374    361.28813    34028          412 
  835000    304.32099   -53.020795    376.95592    34031          415 
  836000    293.16779   -52.806921    354.76878    34022          406 
  837000    298.81424    -44.57288    369.78538    34032          416 
  838000      303.929   -49.112944    368.32824    34022          406 
  839000    284.69928   -44.781431    341.72716    34019          403 
  840000    284.46915   -45.667797    356.69221    34037          421 
  841000    284.27898   -41.317153    356.12804    34035          419 
  842000    298.86523   -58.130496    367.27153    34028          412 
  843000    294.08966   -54.969584    365.50746    34033          417 
  844000    295.72557   -55.521282    378.06134    34039          423 
  845000     294.8961   -56.261796     354.5208    34018          402 
  846000    299.95842   -56.719153    360.76006    34020          404 
  847000    272.55448   -66.548072    337.64948    34032          416 
  848000    301.38952   -61.594085    371.25795    34030          414 
  849000    288.10035   -64.906102    335.25029    34007          391 
  850000    272.22167   -48.446464    307.92142    33996          380 
  851000    303.59572   -54.371942    395.54227    34053          437 
  852000    304.78147    -47.76664    352.14141    34002          386 
  853000    300.56649   -51.119826    348.77463    34005          389 
  854000     306.7785   -48.008164    392.70272    34046          430 
  855000    269.26905   -46.575498    339.62674    34039          423 
  856000    290.15661    -47.64474    369.83329    34044          428 
  857000    293.88542   -47.849207    361.21111    34028          412 
  858000    274.82031   -47.786875    326.48449    34015          399 
  859000    295.70327   -49.062152    336.45148    33998          382 
  860000    288.43574   -46.702589    350.12829    34024          408 
  861000    286.79776   -48.064482    317.30616    33988          372 
  862000     289.6769   -49.014312    340.86722    34009          393 
  863000    288.63059   -53.975236    364.65128    34040          424 
  864000    286.06806   -63.051964    374.66055    34054          438 
  865000    302.57021   -54.253688    384.25221    34042          426 
  866000    296.61209   -52.103967    390.34883    34057          441 
  867000    292.79424   -50.585925    381.78133    34054          438 
  868000    277.63295   -57.293492    372.40192    34064          448 
  869000     289.6614   -54.635698    365.67507    34037          421 
  870000    291.38232   -51.706217    351.16446    34018          402 
  871000    294.33745   -53.198628    361.90673    34028          412 
  872000     270.2408    -57.52715    353.22963    34055          439 
  873000    295.46938   -51.039658    372.05163    34039          423 
  874000    300.75353   -54.951537    384.89925    34046          430 
  875000    291.66874   -48.138709    367.84131    34036          420 
  876000    264.46409   -51.731089    321.40687    34022          406 
  877000    309.69508   -59.338813    398.26005    34046          430 
  878000    276.25125   -48.235677    352.93951    34045          429 
  879000    295.13799   -53.220374    355.53935    34018          402 
  880000    296.06956   -55.971175    358.68803    34022          406 
  881000    285.00008   -55.761769    361.01989    34041          425 
  882000    309.78328   -55.350676     403.9148    34054          438 
  883000    291.07583   -53.884654    351.65409    34022          406 
  884000    296.72501   -54.639986    376.21957    34042          426 
  885000    277.60315   -56.142135    365.19156    34058          442 
  886000     294.8687   -54.476904    374.92188    34043          427 
  887000    308.81059   -51.593584    381.72744    34031          415 
  888000    282.88351   -50.507352    366.01285    34050          434 
  889000    300.35485   -54.404348    366.30759    34026          410 
  890000    284.42193   -49.392769    322.15895    33996          380 
  891000     280.8838   -51.252658    364.02874    34051          435 
  892000    296.02714   -44.989833    354.82404    34019          403 
  893000    311.49482   -47.164777    370.75702    34015          399 
  894000    289.32501   -45.598428    353.01538    34026          410 
  895000    264.84673   -52.428522    319.35205    34020          404 
  896000    302.35298   -53.525218     364.8074    34021          405 
  897000    288.10202    -48.78941     351.9831    34026          410 
  898000    307.52202   -54.870557    358.42869    34007          391 
  899000    285.82489   -52.141674    345.42774    34022          406 
  900000    295.90659   -54.936025    384.66932    34050          434 
  901000    298.99956   -51.881456    371.34988    34033          417 
  902000    296.23637   -48.018566    363.80602    34028          412 
  903000    305.93754   -57.018851    385.02179    34038          422 
  904000    293.63067   -51.147604    377.86485    34048          432 
  905000     279.4084   -48.554841    348.20201    34035          419 
  906000    284.84099   -52.176963    356.41401    34036          420 
  907000    286.74932   -44.534967    349.30632    34025          409 
  908000    285.38573   -50.158935    339.07641    34015          399 
  909000    300.07026   -54.566877    357.93208    34017          401 
  910000    289.53112   -41.345438    335.89342    34006          390 
  911000    286.65976   -50.809264    360.18868    34038          422 
  912000    305.75519   -50.708091    374.11961    34027          411 
  913000    299.28987   -47.574091    387.25251    34051          435 
  914000    299.40197   -47.859259    383.00619    34046          430 
  915000    275.04268   -50.543327    350.81121    34043          427 
  916000    297.14866   -41.993755    358.17098    34019          403 
  917000    292.68669   -45.648314    357.36416    34026          410 
  918000    286.25731   -45.699962    343.43878    34019          403 
  919000    281.02046   -43.768934     330.6678    34010          394 
  920000    300.25053   -43.635557    353.17696    34010          394 
  921000    287.52278   -47.450341     325.0178    33996          380 
  922000    291.08626   -49.686075    349.43653    34019          403 
  923000    287.68834   -48.096534    334.54787    34007          391 
  924000    300.36471   -57.491207    394.50076    34056          440 
  925000     298.3105   -65.242588     400.4633    34067          451 
  926000    289.94539   -56.469002    376.96923    34053          437 
  927000    291.59753   -59.327095    352.23258    34022          406 
  928000    286.52332   -58.730571    337.07908    34011          395 
  929000    288.41146   -57.376126    343.95301    34016          400 
  930000    301.29963   -54.336046    377.36722    34036          420 
  931000    298.32753   -48.702832    370.14026    34032          416 
  932000    310.47929   -53.826746    407.82256    34056          440 
  933000    297.83828   -47.448741    352.12862    34013          397 
  934000    287.26183    -56.31648    334.72451    34006          390 
  935000    290.64783   -54.874122    378.73379    34054          438 
  936000    306.13052    -53.51129    403.92444    34059          443 
  937000    290.77627   -56.946078    374.32083    34048          432 
  938000    291.57592   -68.076338    381.68517    34055          439 
  939000    315.82859   -58.162292    384.85101    34025          409 
  940000    283.34224   -51.147067    338.06903    34017          401 
  941000    279.94482   -46.575985    342.53634    34026          410 
  942000    281.88439   -55.243803     370.0574    34055          439 
  943000    301.59139   -49.421169    405.59438    34067          451 
  944000    283.21997   -51.479231    363.09926    34044          428 
  945000    282.57984   -58.513788    334.09225    34012          396 
  946000    290.99725   -56.160886    354.36122    34025          409 
  947000    311.44674   -51.067587    377.46901    34023          407 
  948000    281.39898   -46.994894    308.05307    33984          368 
  949000    295.97871   -53.112159    355.38187    34019          403 
  950000    297.62556   -55.795167     366.9412    34030          414 
  951000    304.99465   -59.481082    400.53159    34056          440 
  952000    297.69728   -63.957391    397.51715    34064          448 
  953000    283.21902   -51.841988    370.92367    34055          439 
  954000     282.8048   -52.759692     351.6953    34032          416 
  955000    310.53852   -43.021238    376.68321    34023          407 
  956000    286.54965   -51.235659    351.89377    34028          412 
  957000    297.42106   -49.506144    357.70072    34018          402 
  958000    290.92562   -49.096839    364.59967    34037          421 
  959000     292.5354   -47.423051    359.40939    34028          412 
  960000    305.46398   -51.862204    394.41554    34050          434 
  961000     290.2366   -52.617498     367.4247    34040          424 
  962000    302.18146   -53.365379    382.03857    34041          425 
  963000    290.18612   -45.777376    354.66788    34026          410 
  964000    296.37154   -46.677495    353.63156    34014          398 
  965000    280.63113   -49.553398    342.58049    34023          407 
  966000    293.14452   -50.717168    316.52327    33978          362 
  967000    298.51204   -55.057223      346.638    34005          389 
  968000    293.79618   -52.673467    361.72926    34029          413 
  969000    279.81624   -61.211228    347.08808    34031          415 
  970000    295.15858   -48.802778    350.47759    34014          398 
  971000    311.73176   -59.790217    385.01346    34031          415 
  972000     303.3854   -55.308322    376.33869    34033          417 
  973000    285.17714   -58.048833    351.66937    34030          414 
  974000    282.84562   -50.603359    344.17997    34024          408 
  975000    302.77333   -57.272212    380.67457    34038          422 
  976000      301.534   -63.897066    383.39407    34042          426 
  977000    304.64839   -64.283717    394.99945    34051          435 
  978000    300.33114   -50.385659    366.40523    34025          409 
  979000    281.69925   -50.206848    343.16915    34025          409 
  980000    310.95774   -57.650895    374.61018    34021          405 
  981000    309.62249   -46.339345    390.42721    34039          423 
  982000     296.8087   -54.492208    351.07979    34012          396 
  983000    287.65948   -52.283627    350.13239    34024          408 
  984000    301.20336   -58.539065    386.17204    34045          429 
  985000     313.6524   -54.885633    377.32115    34020          404 
  986000     305.1006   -65.633102    417.72316    34075          459 
  987000    296.45818   -61.913444    409.87029    34080          464 
  988000    277.68811   -60.672531    376.75292    34071          455 
  989000    283.09613   -51.123005    351.49138    34033          417 
  990000    295.00339   -50.759463    350.56478    34012          396 
  991000    305.82814   -49.914445    346.46216    33997          381 
  992000    302.24993   -48.536341    370.54081    34026          410 
  993000    297.99699      -54.556    377.83707    34042          426 
  994000    303.53034   -51.920944     384.5567    34042          426 
  995000    278.47196   -54.314506    342.73661    34029          413 
  996000     292.7462   -51.727191    364.07625    34034          418 
  997000    311.83932   -46.889177    376.47482    34021          405 
  998000    282.39042   -44.566351    346.33653    34028          412 
  999000    299.71066   -45.893477    353.78626    34012          396 
 1000000    281.91015   -43.881252     325.3076    34003          387 
Loop time of 10946.4 on 5 procs for 1000000 steps with 34003 atoms

Performance: 7.893 ns/day, 3.041 hours/ns, 91.355 timesteps/s
99.4% CPU use with 5 MPI tasks x no OpenMP threads

MPI task timing breakdown:
Section |  min time  |  avg time  |  max time  |%varavg| %total
---------------------------------------------------------------
Pair    | 224.77     | 307.84     | 341.27     | 240.2 |  2.81
Neigh   | 3838.1     | 6083.1     | 6973.4     |1458.9 | 55.57
Comm    | 693.86     | 1477.5     | 3912.7     |3214.0 | 13.50
Output  | 0.19584    | 0.20263    | 0.22807    |   2.8 |  0.00
Modify  | 2788.9     | 2927.5     | 3133.2     | 286.3 | 26.74
Other   |            | 150.2      |            |       |  1.37

Nlocal:    6800.6 ave 6937 max 6696 min
Histogram: 1 0 1 1 0 1 0 0 0 1
Nghost:    17257.8 ave 17568 max 17099 min
Histogram: 2 0 1 0 1 0 0 0 0 1
Neighs:    10857.4 ave 13012 max 9472 min
Histogram: 1 2 0 0 0 0 0 1 0 1

Total # of neighbors = 54287
Ave neighs/atom = 1.59654
Neighbor list builds = 47220
Dangerous builds = 0

compute		pe ggcmc pe/atom
variable	      x atom c_pe

compute         layers ggcmc chunk/atom bin/1d z lower 0.1 units box bound z -40 40

fix		4 ggcmc ave/chunk 10 100 1000 layers v_x file profile.density
run               3000000
Per MPI rank memory allocation (min/avg/max) = 6.995 | 6.998 | 7.007 Mbytes
Step c_mtem PotEng KinEng Atoms v_nH2 
 1000000    281.91015   -43.881252     325.3076    34003          387 
 1001000    290.59544   -46.272258     344.6184    34013          397 
 1002000    320.46523   -48.464921    391.46599    34026          410 
 1003000    299.05795   -46.100257    351.36164    34011          395 
 1004000    313.83342   -51.140658    384.83367    34027          411 
 1005000    269.89029   -53.518808    366.43626    34070          454 
 1006000    305.23885   -61.091618    384.98393    34039          423 
 1007000    301.26678   -58.878605    382.03948    34042          426 
 1008000    305.96098   -44.577019    392.98796    34047          431 
 1009000    281.27828   -54.372372    339.02811    34020          404 
 1010000    293.40986   -49.209678    391.54361    34063          447 
 1011000    286.77263    -51.90978    370.07411    34049          433 
 1012000    282.47951   -57.992765    377.51483    34063          447 
 1013000    307.52158    -51.15855    361.22547    34011          395 
 1014000    280.65946    -47.90047    310.24859    33987          371 
 1015000    294.54746   -51.900447    362.15291    34029          413 
 1016000    283.09943   -51.904899    356.34286    34038          422 
 1017000     294.1793   -49.603264    382.41438    34053          437 
 1018000    288.93399   -54.538772    371.88915    34048          432 
 1019000    290.28127   -59.337317    383.56985    34059          443 
 1020000    275.63036   -56.204536    345.60694    34037          421 
 1021000    299.49306   -54.023307     376.9428    34037          421 
 1022000    295.99662   -52.445251    360.34845    34023          407 
 1023000    289.34412   -51.286188    381.43231    34059          443 
 1024000     291.3646   -47.694512    360.11733    34030          414 
 1025000    315.42405   -56.697088    356.67026    33996          380 
 1026000    313.30287   -57.677922    391.22128    34034          418 
 1027000    303.60156   -56.195643    399.87184    34058          442 
 1028000    301.78577   -57.845521    362.58609    34019          403 
 1029000    318.98632   -58.689622    389.17686    34026          410 
 1030000    296.97485    -57.44538    382.93309    34048          432 
 1031000    308.81253   -53.244071    386.78579    34037          421 
 1032000    295.30226   -53.008084    362.91352    34029          413 
 1033000     322.4815   -45.954849    371.49008    34003          387 
 1034000    283.71574   -53.662035    345.18125    34025          409 
 1035000    270.47284   -51.454581    344.38146    34043          427 
 1036000    289.74108   -45.814942    357.70947    34029          413 
 1037000    287.15607   -55.505939    345.60881    34020          404 
 1038000    299.10828   -53.132923    357.53475    34017          401 
 1039000    308.41499   -51.052471    376.19011    34026          410 
 1040000    292.33754   -49.373437    344.79548    34011          395 
 1041000    309.22343   -49.177277    369.21201    34017          401 
 1042000    285.28173   -54.024668    335.93702    34012          396 
 1043000    280.16644   -50.696051     357.1522    34044          428 
 1044000    293.14414   -53.662968    346.00756    34012          396 
 1045000    280.64431   -49.150094    361.98978    34049          433 
 1046000    294.02768   -44.283605    351.79796    34018          402 
 1047000    287.41472   -41.043075    353.65724    34029          413 
 1048000    263.76671   -49.819519    347.05901    34057          441 
 1049000    282.57983   -43.511281    330.81148    34009          393 
 1050000    287.09046   -44.795352    326.71443    33997          381 
 1051000    263.81447    -39.46203    285.30386    33979          363 
 1052000    287.00443   -38.130666    355.73608    34029          413 
 1053000    307.76641   -46.656118    390.68887    34038          422 
 1054000    289.00392   -48.338364    357.38096    34030          414 
 1055000    309.81942   -53.016637    370.42739    34018          402 
 1056000    298.16898   -57.326605    364.90345    34027          411 
 1057000    291.62333   -52.101742    346.62068    34015          399 
 1058000    298.43494   -54.200452    352.32526    34013          397 
 1059000    284.63409   -45.123203    330.39445    34005          389 
 1060000    285.73763    -51.76372     352.2978    34030          414 
[...]
 3735000    289.23143    -55.09172    353.31564    34026          410 
 3736000    296.86223   -52.284443    388.73611    34056          440 
 3737000    278.40659   -62.491682    358.16692    34048          432 
 3738000    304.42871   -57.701324     400.0623    34057          441 
 3739000    299.62632   -50.061908    378.97362    34041          425 
 3740000    289.97459   -48.518547    345.13184    34016          400 
 3741000    303.91347   -58.583742    392.01721    34049          433 
 3742000    302.12836   -44.451549    340.53096    33995          379 
 3743000     304.5273   -49.455254    359.36786    34012          396 
 3744000    284.88018    -40.21461    344.10855    34021          405 
 3745000    302.52152   -51.235575    387.95893    34047          431 
 3746000    300.57742   -46.064647    358.17724    34013          397 
 3747000    290.18322   -44.544106    331.57074    34000          384 
 3748000    295.54288   -43.750044     325.2271    33985          369 
 3749000    304.49585   -55.215372    374.83937    34028          412 
 3750000    307.95388   -50.265598    399.84216    34052          436 
 3751000    283.13316    -52.07696    365.62169    34049          433 
 3752000    299.96456   -58.235948    372.39099    34033          417 
 3753000    314.94918   -58.807117    405.83704    34048          432 
 3754000     285.1311    -61.81366    339.61319    34015          399 
 3755000    316.26709   -55.502414    384.77301    34024          408 
 3756000    286.23153   -61.365822    347.31606    34023          407 
 3757000     276.1962   -47.669001    344.14881    34035          419 
 3758000    302.03758   -64.216712    382.08202    34041          425 
 3759000      286.161   -60.311487    374.67198    34055          439 
 3760000    293.05312   -56.694363    374.27863    34045          429 
 3761000    283.33905   -59.954734    374.92787    34060          444 
 3762000    312.08242   -66.902963    405.37745    34052          436 
 3763000     284.7737   -66.170945    368.27163    34049          433 
 3764000    298.02924   -67.198469    416.39183    34085          469 
 3765000    303.46966   -64.729569    384.97054    34041          425 
 3766000    295.95627   -65.157669    379.98147    34047          431 
 3767000    294.32656   -54.259112    353.28982    34019          403 
 3768000    291.03203   -58.480576    344.57779    34011          395 
 3769000    289.22834   -51.075841    360.58444    34034          418 
 3770000    287.49135   -50.747412     383.1225    34062          446 
 3771000    291.15195   -59.839231    365.13224    34036          420 
 3772000    282.55633   -52.029301    352.14116    34035          419 
 3773000    283.13171   -45.621487    322.80481    33999          383 
 3774000    288.17705   -57.773753    327.62409    33997          381 
 3775000    286.10881   -58.205155    349.38493    34025          409 
 3776000    277.09397   -52.862063     340.7771    34029          413 
 3777000    296.48086   -54.029709    354.64874    34018          402 
 3778000    276.50423   -58.268411    347.62932    34037          421 
 3779000    283.27644   -58.792741    339.05521    34018          402 
 3780000     290.6151   -58.403654    354.21691    34025          409 
 3781000    283.27019   -65.188867    367.47816    34052          436 
 3782000    309.23811   -61.231821    387.34607    34036          420 
 3783000    307.34868   -55.124641    398.38671    34050          434 
 3784000    279.70791   -53.964079    361.54623    34049          433 
 3785000    278.00486    -51.94528    336.14697    34022          406 
 3786000    297.33655   -57.121148    382.86614    34045          429 
 3787000    296.86837   -54.556609    381.80884    34048          432 
 3788000    295.00061   -47.935982    370.22576    34038          422 
 3789000    290.34016   -52.029744    364.33776    34037          421 
 3790000    275.99482    -54.57666    353.37749    34045          429 
 3791000    295.99615   -54.568041    363.70391    34028          412 
 3792000    290.65428   -60.376684    386.69336    34063          447 
 3793000    279.05022   -59.256454    364.13741    34053          437 
 3794000    274.63443    -51.65051    329.81746    34019          403 
 3795000    295.84788   -52.361383    365.96211    34031          415 
 3796000    307.08614   -52.555594    387.44041    34040          424 
 3797000    293.74365   -52.099155    352.50971    34019          403 
 3798000    296.67102   -50.178921    350.24766    34012          396 
 3799000    301.85699   -53.010304    395.90216    34055          439 
 3800000    283.07036   -58.625302    388.48193    34075          459 
 3801000    293.70275   -57.072296    361.12303    34028          412 
 3802000    286.88677   -48.030844    346.77631    34022          406 
 3803000    307.47583   -50.471175    422.69537    34077          461 
 3804000     285.3742   -49.344561    387.51861    34072          456 
 3805000    306.10271   -58.011398    394.52574    34049          433 
 3806000    302.63434   -62.055994    368.78041    34024          408 
 3807000    316.30271   -54.609188     384.2006    34023          407 
 3808000     291.6934   -62.986301    385.42743    34059          443 
 3809000    295.07344   -62.004261    379.74029    34047          431 
 3810000    281.94425   -46.498823    345.52384    34028          412 
 3811000    303.04339   -62.595876    375.14747    34032          416 
 3812000    288.46842    -62.59421    362.99267    34038          422 
 3813000    308.22705   -66.701974    403.86567    34055          439 
 3814000    285.92076   -56.324652    349.84919    34025          409 
 3815000    305.43956   -56.384357    396.87718    34050          434 
 3816000    291.33976   -48.514623    400.33268    34076          460 
 3817000    265.31507   -52.460721    312.42589    34011          395 
 3818000    279.83739    -52.15286    331.36394    34014          398 
 3819000    304.01258   -57.486964    384.05677    34039          423 
 3820000      317.974   -64.363302    430.38333    34071          455 
 3821000    275.72635   -69.537074    370.71565    34068          452 
 3822000    307.87737   -49.766115    391.88409    34042          426 
 3823000    297.71204   -55.923713    386.84204    34051          435 
 3824000    310.94094   -53.235418    350.40369    33995          379 
 3825000    306.79798   -54.036084     370.6619    34022          406 
 3826000     299.8149   -51.020473    381.29485    34043          427 
 3827000    289.88766   -50.622396    353.10642    34022          406 
 3828000    285.60499    -56.22735    355.91514    34035          419 
 3829000    304.14186   -55.802566    372.09782    34027          411 
 3830000    288.78352   -48.798118    363.56354    34039          423 
 3831000    298.32214   -52.595081    348.87313    34009          393 
 3832000     288.5458   -52.899955    361.70599    34035          419 
 3833000    305.13577   -49.134194    368.57541    34021          405 
 3834000    284.75441    -49.21871    380.80645    34064          448 
 3835000    298.03985   -42.115123    368.95854    34031          415 
 3836000    285.12803   -42.975085    337.04641    34013          397 
 3837000    279.04894   -43.870976    342.20504    34028          412 
 3838000    270.01833   -37.467164    316.50962    34009          393 
 3839000    297.06757   -41.080918    371.87603    34036          420 
 3840000    300.75848   -32.488068    361.91659    34020          404 
 3841000     300.3016   -41.818748    347.46335    34004          388 
 3842000    278.07811   -45.144768    334.52859    34019          403 
 3843000    302.13271   -40.401108    372.52145    34029          413 
 3844000    298.33873   -43.867126    340.45755    33999          383 
 3845000     299.5678   -46.337602     353.6187    34012          396 
 3846000    267.58941   -41.402723    309.98766    34005          389 
 3847000    301.03509   -41.754871    337.92309    33992          376 
 3848000    286.89044   -48.353633    331.52836    34004          388 
 3849000    305.87495   -44.261772    371.09814    34023          407 
 3850000    283.74956    -49.09139    362.90847    34044          428 
 3851000    292.59624   -43.784975    351.77914    34018          402 
 3852000    279.36366   -47.512652    316.28864    33996          380 
 3853000    297.01098   -54.934021     333.4607    33992          376 
 3854000    298.12894   -47.896991    362.13066    34024          408 
 3855000    300.21669   -45.665677    380.42928    34042          426 
 3856000    283.93743    -38.02587    320.74285    33995          379 
 3857000    298.36728   -36.074853    327.74462    33985          369 
 3858000    328.45352   -45.852635    382.07718    34007          391 
 3859000    288.97596   -46.576288    365.00016    34040          424 
 3860000    289.48769   -45.054178    370.85966    34046          430 
 3861000    292.03233   -46.500842    349.19317    34018          402 
 3862000    308.86594   -53.322923    387.28576    34037          421 
 3863000    288.29452    -48.66426    359.36983    34035          419 
 3864000    304.43508   -46.711004    381.77549    34037          421 
 3865000    288.65532    -45.32362    347.56973    34020          404 
 3866000    299.36782   -42.852417     376.2763    34037          421 
 3867000    285.81495   -44.436764    335.67311    34011          395 
 3868000    276.64677   -46.171387    319.77114    34004          388 
 3869000    296.08708   -47.719587    345.32803    34008          392 
 3870000    278.74877   -57.731743    354.33594    34042          426 
 3871000    287.38105   -55.190802    374.93289    34054          438 
 3872000    317.59978   -49.449708    411.52836    34051          435 
 3873000     298.1006   -51.166993    363.18417    34024          408 
 3874000    305.14963   -48.163452    357.61886    34010          394 
 3875000    300.08229   -51.335167    372.16118    34033          417 
 3876000    297.21621   -39.793934    344.73428    34006          390 
 3877000    287.58484   -46.132481    347.02544    34021          405 
 3878000    273.66146   -40.881232    329.11046    34020          404 
 3879000    292.71621   -49.328321    384.51639    34057          441 
 3880000    290.96991   -49.202653    363.49724    34035          419 
 3881000    306.46389   -53.960202    365.19302    34016          400 
 3882000    277.49815   -57.596189    337.93464    34025          409 
 3883000    280.62296   -52.733935    348.20223    34033          417 
 3884000    290.75763   -51.344543    344.38129    34014          398 
 3885000     292.4904   -53.886184    350.21994    34018          402 
 3886000    294.87779   -46.533575    360.64068    34027          411 
 3887000    307.76359   -55.260858    407.19425    34060          444 
 3888000    302.15705   -56.052804    354.62523    34010          394 
 3889000    299.91619   -52.497664    367.01936    34026          410 
 3890000    277.52006   -51.294991    371.61249    34065          449 
 3891000    288.30204   -52.417039    369.74134    34044          428 
 3892000    286.57199   -54.739196    347.72277    34021          405 
 3893000    283.01764   -49.960358    344.42013    34025          409 
 3894000    284.54201   -48.272734    346.03612    34024          408 
 3895000     296.6035   -44.696345    340.34889    34001          385 
 3896000    297.70184   -57.801664     360.6808    34023          407 
 3897000    284.43008   -55.563513    344.13007    34022          406 
 3898000    312.89943   -55.367342    397.84117    34043          427 
 3899000    300.61316    -51.21661     356.6585    34014          398 
 3900000    310.29089   -53.417762     367.4026    34013          397 
 3901000    295.79426   -45.632892    348.40777    34012          396 
 3902000    309.58978   -49.651832    372.82481    34019          403 
 3903000    283.72361   -45.085197    336.98004    34015          399 
 3904000    278.98244   -57.169234    343.07437    34029          413 
 3905000    287.58029   -60.010015    356.64989    34032          416 
 3906000    280.78184   -52.722366     350.5819    34035          419 
 3907000    288.82097   -56.879043    380.50533    34058          442 
 3908000    288.33863   -55.083271    378.19202    34055          439 
 3909000     297.0938   -53.362683    374.28108    34038          422 
 3910000    321.18858   -49.517947    395.11974    34029          413 
 3911000    258.12139   -55.359877    298.60087    34003          387 
 3912000    287.96432   -61.139449    374.11218    34052          436 
 3913000    304.79337   -52.506671    404.12129    34061          445 
 3914000    287.23323   -49.783959    349.19841    34024          408 
 3915000    296.90531   -52.077105    371.08195    34036          420 
 3916000    271.98792   -48.100351    328.00287    34021          405 
 3917000    285.35958   -48.724452    323.28397    33996          380 
 3918000    304.84499   -50.347072    364.77872    34018          402 
 3919000    296.09547   -45.288106    357.46097    34021          405 
 3920000    305.64286   -42.730884    360.93775    34013          397 
 3921000    304.86857   -47.555329    342.82311    33994          378 
 3922000    307.43277   -43.012381    354.69641    34004          388 
 3923000      274.202   -53.151836    351.85267    34047          431 
 3924000    288.08163   -44.392269    349.63515    34023          407 
 3925000    284.91213   -39.664351    327.27625    34002          386 
 3926000    307.33568   -43.859231    356.72789    34005          389 
 3927000    300.55814   -51.221671     355.0482    34013          397 
 3928000    275.94312   -41.573047    313.53637    33998          382 
 3929000    293.74458   -42.528576    344.50216    34010          394 
 3930000    306.08381   -44.831941    401.14585    34055          439 
 3931000    303.36061    -45.77821    357.64198    34011          395 
 3932000    293.80438   -41.357644    361.81509    34028          412 
 3933000    289.60099   -41.868205    361.67546    34035          419 
 3934000    290.32725    -50.31013    346.09041    34016          400 
 3935000    298.12118    -44.96899    347.08178    34005          389 
 3936000    287.25148   -51.028799    346.77977    34022          406 
 3937000    282.55612    -41.10685    355.01516    34035          419 
 3938000    299.16561   -47.496846    388.13882    34051          435 
 3939000    293.60303   -43.270296    316.45319    33978          362 
 3940000    297.37047   -42.064801    336.25458    33996          380 
 3941000    268.74567   -42.384695    325.33527    34022          406 
 3942000    301.86882   -43.259572    367.26601    34025          409 
 3943000    281.53316   -47.244696    342.08101    34023          407 
 3944000    296.69464   -39.175194     348.7048    34010          394 
 3945000    281.59426   -44.482194    306.00422    33981          365 
 3946000    300.45092   -43.330698    350.60576    34007          391 
 3947000    295.47891   -46.145694    321.25083    33981          365 
 3948000    287.77332   -41.775496    305.14312    33972          356 
 3949000    297.47176    -50.75409    344.18727    34004          388 
 3950000    291.12867   -51.251691      369.434    34042          426 
 3951000    275.27136    -54.90728    370.12839    34067          451 
 3952000    291.15501   -59.431642    358.50391    34030          414 
 3953000    299.72061   -59.037469    364.74454    34025          409 
 3954000    286.86812   -49.830063    337.92699    34009          393 
 3955000    297.98468    -52.46504    367.35591    34030          414 
 3956000    274.89096   -58.856186    320.66796    34008          392 
 3957000     308.6932   -54.245894    370.85334    34020          404 
 3958000    302.04223   -54.108157    356.77073    34013          397 
 3959000    292.33793   -63.299711    350.58521    34019          403 
 3960000    296.41604   -51.952914    338.16375    33999          383 
 3961000    281.85324   -50.839502    328.96225    34007          391 
 3962000    271.87432   -58.637954    329.14113    34023          407 
 3963000    286.94252   -56.741645    355.08254    34032          416 
 3964000    313.95756   -58.008636    371.35884    34013          397 
 3965000    294.73213   -51.986127    355.81451    34021          405 
 3966000     273.1986   -53.302958    341.43547    34035          419 
 3967000    301.57806   -66.087554    364.95774    34021          405 
 3968000    298.33768   -56.385561    385.06991    34048          432 
 3969000    277.86912   -48.863505    363.99387    34056          440 
 3970000    307.28142   -62.055851    381.21202    34032          416 
 3971000    292.02608   -52.083696    376.98881    34050          434 
 3972000    288.97242   -57.306702    366.73727    34040          424 
 3973000     289.3541   -52.797288    359.44573    34031          415 
 3974000     286.8726   -60.485924    381.49486    34061          445 
 3975000      290.385   -51.978119    372.62431    34046          430 
 3976000    299.11798   -55.162968    372.68694    34034          418 
 3977000    302.02197   -46.366079    384.66803    34044          428 
 3978000    294.14447   -45.364279    341.97167    34005          389 
 3979000     309.6522   -48.526411    368.28773    34014          398 
 3980000    286.28458   -49.448813    331.66818    34005          389 
 3981000    300.58973   -46.901103     345.2691    34002          386 
 3982000    281.10063   -47.924383    330.08614    34008          392 
 3983000    279.01334   -42.262976    350.06921    34036          420 
 3984000    307.13724   -50.741055    377.44587    34026          410 
 3985000    297.57012   -51.114855    359.35712    34022          406 
 3986000    297.38456   -51.465092    368.92671    34033          417 
 3987000    269.90978   -55.017153    333.94657    34031          415 
 3988000    304.05598   -49.980111    369.94329    34025          409 
 3989000    279.73054   -53.729561    348.86778    34034          418 
 3990000    292.66234   -62.973054    385.17163    34058          442 
 3991000    298.26168   -56.573197     405.4592    34073          457 
 3992000    289.34084   -63.185506    362.01679    34035          419 
 3993000    303.20906   -54.359298    377.25655    34033          417 
 3994000    290.40235   -54.378749    366.95962    34040          424 
 3995000    305.83017   -51.186951    364.20606    34016          400 
 3996000    279.83106   -57.833813    329.45047    34011          395 
 3997000    298.37021   -46.345047    385.54424    34049          433 
 3998000    291.13495   -54.729386    340.83051    34006          390 
 3999000    285.25347   -57.898054    364.11448    34044          428 
 4000000    281.13675   -53.972087    373.35929    34062          446 
Loop time of 28544 on 5 procs for 3000000 steps with 34062 atoms

Performance: 9.081 ns/day, 2.643 hours/ns, 105.101 timesteps/s
99.5% CPU use with 5 MPI tasks x no OpenMP threads

MPI task timing breakdown:
Section |  min time  |  avg time  |  max time  |%varavg| %total
---------------------------------------------------------------
Pair    | 690.24     | 896.95     | 967.56     | 348.6 |  3.14
Neigh   | 10893      | 15970      | 17715      |2021.4 | 55.95
Comm    | 2065.8     | 3662.2     | 9068.4     |4507.7 | 12.83
Output  | 0.58776    | 2.9246     | 3.5218     |  68.3 |  0.01
Modify  | 7359.6     | 7626.7     | 8060.8     | 324.0 | 26.72
Other   |            | 385.6      |            |       |  1.35

Nlocal:    6812.4 ave 6965 max 6719 min
Histogram: 1 1 1 0 1 0 0 0 0 1
Nghost:    17286 ave 17626 max 17072 min
Histogram: 1 1 1 0 1 0 0 0 0 1
Neighs:    12617.4 ave 13767 max 11976 min
Histogram: 2 0 0 1 1 0 0 0 0 1

Total # of neighbors = 63087
Ave neighs/atom = 1.85212
Neighbor list builds = 141459
Dangerous builds = 0

write_data        C39H37O10NS_gcmc4ns.data




Total wall time: 10:58:11
