LAMMPS (16 Mar 2018)
echo              both
units             real
dimension          3
atom_style        full
boundary          p p p
#pair_style        lj/class2/coul/long  12.5
pair_style          lj/class2/coul/cut 12.5
pair_modify       shift yes mix arithmetic
#kspace_style      pppm 0.0001
bond_style        class2
angle_style       class2
dihedral_style    class2
improper_style    class2

read_data         C100H82N2O5S2_88.data
  orthogonal box = (-200 -15 -50) to (800 135 100)
  25 by 1 by 2 MPI processor grid
  reading atoms ...
  16808 atoms
  scanning bonds ...
  3 = max bonds/atom
  scanning angles ...
  6 = max angles/atom
  scanning dihedrals ...
  12 = max dihedrals/atom
  scanning impropers ...
  4 = max impropers/atom
  reading bonds ...
  18568 bonds
  reading angles ...
  33088 angles
  reading dihedrals ...
  51304 dihedrals
  reading impropers ...
  14696 impropers
  4 = max # of 1-2 neighbors
  8 = max # of 1-3 neighbors
  19 = max # of 1-4 neighbors
  21 = max # of special neighbors

neighbor          2 bin
#neigh_modify      every 1 delay 0 check yes page 1000000 one 20000
neigh_modify      every 1 delay 0 check yes

thermo            1000
thermo_style      custom step temp press pe ke density

#variable          zl equal "zlo + 0.01*lz"
#variable          zh equal "zhi - 0.01*lz"


#fix               20 all indent 10000.0 plane z v_zh hi units box
#fix               21 all indent 10000.0 plane z v_zl lo units box

fix               1 all nvt temp 1000 1000 100
run               100000
Neighbor list info ...
  update every 1 steps, delay 0 steps, check yes
  max neighbors/atom: 2000, page size: 100000
  master list distance cutoff = 14.5
  ghost atom cutoff = 14.5
  binsize = 7.25, bins = 138 21 21
  1 neighbor lists, perpetual/occasional/extra = 1 0 0
  (1) pair lj/class2/coul/cut, perpetual
      attributes: half, newton on
      pair build: half/bin/newton
      stencil: half/bin/3d/newton
      bin: standard
Per MPI rank memory allocation (min/avg/max) = 0.8782 | 9.499 | 15.11 Mbytes
Step Temp Press PotEng KinEng Density 
       0            0   -121.89597    67443.851            0 0.0094554637 
    1000    302.17087    13.074988    69539.835      15138.3 0.0094554637 
    2000    1017.7845   -13.642378    103827.34    50989.452 0.0094554637 
    3000    1011.8793   -15.173713    109650.68    50693.611 0.0094554637 
    4000    985.57911   -2.7051839    107996.64     49376.01 0.0094554637 
    5000    1007.4178   -14.140789    110716.02    50470.094 0.0094554637 
    6000    995.82666   -10.583956    111273.98    49889.396 0.0094554637 
    7000     996.0236   -4.7160413    110589.38    49899.263 0.0094554637 
    8000    999.65475   -4.1644603    111760.43    50081.178 0.0094554637 
    9000     996.9644   -4.9243357    110736.69    49946.396 0.0094554637 
   10000    1005.2707    12.780419    111473.73    50362.527 0.0094554637 
   11000    996.32997   -1.1437724     110820.4    49914.611 0.0094554637 
   12000    1001.8816    4.8493653    111123.78    50192.738 0.0094554637 
   13000    1003.0994     10.90231     111084.6    50253.751 0.0094554637 
   14000    995.78918   -1.7332941    111339.52    49887.519 0.0094554637 
   15000    1003.3785   -2.0694857    110833.04    50267.734 0.0094554637 
   16000    1007.0818   -6.8830121     110715.9    50453.262 0.0094554637 
   17000     996.7625   -15.606211    111273.37    49936.281 0.0094554637 
   18000    999.03959   -6.5027966    111010.04    50050.359 0.0094554637 
   19000    1005.3982  -0.74247921    111761.36    50368.917 0.0094554637 
   20000    996.68557   -7.8656316    110749.21    49932.427 0.0094554637 
   21000    1001.5492   -3.1918087    111250.99    50176.088 0.0094554637 
   22000    1001.1094    -13.05827     111111.8    50154.053 0.0094554637 
   23000    993.23491    8.1925943    110321.51    49759.554 0.0094554637 
   24000     1009.102   -16.527788    111346.53    50554.469 0.0094554637 
   25000    996.62703   -9.1178947    110932.62    49929.494 0.0094554637 
   26000     999.2117    12.083266    110315.04    50058.982 0.0094554637 
   27000    1006.6264   0.14813327    111351.36    50430.448 0.0094554637 
   28000    997.34455   -2.3524074    110804.93     49965.44 0.0094554637 
   29000    997.74862   -1.7871848    110934.07    49985.684 0.0094554637 
   30000    1002.3387   -4.9129158    111310.75    50215.642 0.0094554637 
   31000    995.59949   -11.492359    110519.41    49878.015 0.0094554637 
   32000    1002.9053   0.12856754    111490.99    50244.023 0.0094554637 
   33000    994.32858    1.0815556     111022.8    49814.345 0.0094554637 
   34000    1003.7608    -8.274184    110381.55    50286.885 0.0094554637 
   35000    1006.5737    5.2094658    111445.32    50427.807 0.0094554637 
   36000    996.85853   -1.0655158    110416.36    49941.092 0.0094554637 
   37000    1000.6492   -0.7761035    110636.94    50130.999 0.0094554637 
   38000    1006.0309    14.843728    111182.06    50400.614 0.0094554637 
   39000    993.17928   -7.5549459    110803.85    49756.767 0.0094554637 
   40000    1000.7554   -11.501355    111224.05    50136.317 0.0094554637 
   41000    997.62464   -2.2375029    110954.68    49979.473 0.0094554637 
   42000    1009.9227    9.7114268    110630.21    50595.585 0.0094554637 
   43000    1001.7165   -10.128001    110475.99     50184.47 0.0094554637 
   44000    1005.6721   -11.910304    110923.81     50382.64 0.0094554637 
   45000    1012.9296   -3.2990947    110917.01    50746.228 0.0094554637 
   46000    1004.0219   -10.225296     110727.2    50299.967 0.0094554637 
   47000    1002.6654   -8.0075967    111673.94    50232.006 0.0094554637 
   48000    993.02422   0.98921166    111250.12    49748.998 0.0094554637 
   49000    996.41782    11.359832    110550.41    49919.013 0.0094554637 
   50000    1006.2302  -0.59609345    111044.32    50410.599 0.0094554637 
   51000    1006.4095   -9.6883923    110808.73    50419.581 0.0094554637 
   52000     991.7465    4.3153534    110806.81    49684.987 0.0094554637 
   53000    998.24004      3.98369    111132.66    50010.303 0.0094554637 
   54000    989.79594    4.5258915    110359.58    49587.267 0.0094554637 
   55000    997.58695   -9.9923782    111092.82    49977.584 0.0094554637 
   56000    1000.6369   -7.6070051    110760.29    50130.381 0.0094554637 
   57000    999.69554    2.0071681    110477.66    50083.222 0.0094554637 
   58000    999.11086    1.9446982    110597.03     50053.93 0.0094554637 
   59000    1003.1581   -3.0501902    111121.08    50256.693 0.0094554637 
   60000    990.04392   -8.9602501    110846.22     49599.69 0.0094554637 
   61000    1003.2277     1.745905    110832.34    50260.178 0.0094554637 
   62000     995.7899    7.5291863    110227.82    49887.555 0.0094554637 
   63000    1006.3951   -23.051231     110546.7    50418.862 0.0094554637 
   64000    1001.3296   0.46391094    110942.77    50165.084 0.0094554637 
   65000    989.51912    3.7311667    110792.44    49573.398 0.0094554637 
   66000    1005.9381   -7.6539955       111216    50395.962 0.0094554637 
   67000    1003.8886   -8.6410332    110015.26    50293.286 0.0094554637 
   68000    1005.2853   -16.450818    110678.35    50363.259 0.0094554637 
   69000    999.74074   0.86275022    110729.05    50085.486 0.0094554637 
   70000    1015.2858    5.5615994    110596.44    50864.269 0.0094554637 
   71000    999.65623   -13.678245    110921.79    50081.252 0.0094554637 
   72000    1009.0972    -7.192443    110560.82     50554.23 0.0094554637 
   73000    996.75305    9.7719864    110433.04    49935.807 0.0094554637 
   74000    999.00359   -0.6078376    111171.66    50048.556 0.0094554637 
   75000    995.41308   -6.7360304     110842.3    49868.677 0.0094554637 
   76000    1013.5575   -17.383252    110452.38    50777.682 0.0094554637 
   77000     1007.224   -7.7169775    111305.56    50460.388 0.0094554637 
   78000    1000.1618    3.6704277    110197.85    50106.578 0.0094554637 
   79000    1000.4401     2.364133    110734.12    50120.524 0.0094554637 
   80000    1005.7493    5.3117382     110603.5    50386.507 0.0094554637 
   81000    999.29711   0.11836265    110544.64    50063.261 0.0094554637 
   82000    1003.9579   -1.7835613    110887.57    50296.758 0.0094554637 
   83000    1002.3503    -4.803759    110932.12    50216.222 0.0094554637 
   84000     996.7772   -3.2818732    110813.65    49937.017 0.0094554637 
   85000    1006.3784   -6.2360978    111141.91    50418.021 0.0094554637 
   86000    1001.9729    2.8186603    110634.75    50197.313 0.0094554637 
   87000    992.58745    24.105279    110055.58    49727.117 0.0094554637 
   88000    1005.5707   -13.819376    110815.19    50377.557 0.0094554637 
   89000    997.22603   -8.4895612    110732.06    49959.503 0.0094554637 
   90000    1007.8536   -7.5418628    110202.15     50491.93 0.0094554637 
   91000    1005.1561   -8.9098083     110800.5    50356.785 0.0094554637 
   92000    997.43037   -3.2734931    111105.37     49969.74 0.0094554637 
   93000    990.93718   -18.410992    110536.12    49644.441 0.0094554637 
   94000    997.91025     12.58301    110350.14    49993.781 0.0094554637 
   95000    993.76799   -1.0404874    111007.26     49786.26 0.0094554637 
   96000    991.28782   -2.1770158    110745.81    49662.008 0.0094554637 
   97000    1004.2685    16.427181    110564.15    50312.318 0.0094554637 
   98000    1003.0156   -7.2285488    111220.75    50249.551 0.0094554637 
   99000    991.58281   -5.4099878    110109.55    49676.786 0.0094554637 
  100000     999.3114    -2.196086    110783.48    50063.976 0.0094554637 
Loop time of 510.453 on 50 procs for 100000 steps with 16808 atoms

Performance: 16.926 ns/day, 1.418 hours/ns, 195.904 timesteps/s
98.4% CPU use with 50 MPI tasks x no OpenMP threads

MPI task timing breakdown:
Section |  min time  |  avg time  |  max time  |%varavg| %total
---------------------------------------------------------------
Pair    | 0.0059683  | 52.573     | 185.48     | 795.1 | 10.30
Bond    | 0.012465   | 90.65      | 258.77     | 968.7 | 17.76
Neigh   | 30.796     | 32.344     | 33.411     |  14.9 |  6.34
Comm    | 0.098515   | 92.359     | 367.74     |1151.4 | 18.09
Output  | 0.005286   | 0.0054402  | 0.0059724  |   0.1 |  0.00
Modify  | 38.228     | 240.95     | 475.16     |1249.2 | 47.20
Other   |            | 1.569      |            |       |  0.31

Nlocal:    336.16 ave 1178 max 0 min
Histogram: 23 1 6 4 3 4 1 2 4 2
Nghost:    795.04 ave 3524 max 0 min
Histogram: 20 7 6 5 5 4 1 1 0 1
Neighs:    32949.1 ave 158060 max 0 min
Histogram: 27 5 5 2 5 0 1 1 2 2

Total # of neighbors = 1647457
Ave neighs/atom = 98.0162
Ave special neighs/atom = 11.5602
Neighbor list builds = 10315
Dangerous builds = 0
unfix             1

fix               2 all npt temp 900 900 100 iso 100 100 1000
run               100000
Per MPI rank memory allocation (min/avg/max) = 0.8782 | 9.923 | 15.61 Mbytes
Step Temp Press PotEng KinEng Density 
  100000     999.3114    -2.196086    110783.48    50063.976 0.0094554637 
  101000    903.26902   -16.066631    105659.57      45252.4  0.011149065 
  102000    902.78447   -10.516478    104953.15    45228.125     0.012732 
  103000    901.55315    1.9768748    105265.59    45166.437  0.014339253 
  104000    890.76854   0.13659025    105243.36    44626.145  0.015983338 
  105000      896.379   -56.213379    105146.32    44907.221  0.017660683 
  106000     907.9896    4.5546828    105282.43    45488.894  0.019406509 
  107000    893.10061   -16.429071    105195.14    44742.978  0.021206612 
  108000    901.08453     5.904408    105707.15     45142.96  0.023044748 
  109000    899.08444   -17.700335    105279.32    45042.759  0.024943613 
  110000    897.36468   -6.9554419    105109.93    44956.601  0.026909574 
  111000    905.47378   -15.316022    104962.42    45362.855  0.028932261 
  112000    895.85535    -25.19424    105096.58    44880.986  0.030992417 
  113000    901.66953    8.4547785    105108.23    45172.268  0.033130165 
  114000    900.70212   -56.364601    105345.81    45123.802  0.035324305 
  115000    899.13387    24.821737    104905.82    45045.235  0.037589091 
  116000    898.17658    18.978512    104938.65    44997.277  0.039899857 
  117000    907.32341    19.675856    104644.14    45455.519   0.04224704 
  118000    902.37712    14.854871    104657.54    45207.717  0.044678228 
  119000    898.64907    8.5986655    104671.58    45020.947  0.047170967 
  120000    896.86858   -17.570709     104331.2    44931.748  0.049694334 
  121000    907.68284    25.843419     104461.6    45473.525  0.052322587 
  122000    887.82039    -13.18396    104158.07    44478.447  0.054985675 
  123000    899.82391    8.2250275    104246.88    45079.805   0.05771238 
  124000    915.96417   -25.882001       104642    45888.408   0.06046448 
  125000    893.79994   -14.236309    104089.84    44778.013  0.063361534 
  126000    896.62298   -26.218005    104684.99    44919.443  0.066371304 
  127000    906.77239     79.74413    104440.61    45427.914  0.069288763 
  128000     904.4583   -13.721695    103623.21    45311.981  0.072361396 
  129000    895.77893   -129.66915    104118.07    44877.158  0.075389875 
  130000    904.68575   -36.239226    104206.74    45323.376   0.07847177 
  131000    900.28321   -2.5148309    103761.42    45102.815  0.081776897 
  132000    903.45506   -117.13454    104392.97     45261.72  0.084976624 
  133000    898.95318    15.732662    103827.83    45036.183  0.088522664 
  134000    892.30839   -160.23368    103555.56    44703.289   0.09200633 
  135000    897.00318    5.5903037     103553.2    44938.491  0.095376619 
  136000    904.30294     51.98531    103815.23    45304.198  0.098991937 
  137000    902.29223   -32.181818    103669.46    45203.464   0.10264931 
  138000    898.93017    3.6851823     104584.9     45035.03   0.10642018 
  139000    899.28805   -100.92819    104272.29    45052.959   0.11017194 
  140000    899.90985    25.837969    103454.67     45084.11   0.11393018 
  141000    896.41729   -86.134964    103714.56    44909.139   0.11812127 
  142000    901.23141    61.798855     103530.8    45150.319   0.12200494 
  143000    895.81024   -92.516912    103065.77    44878.726   0.12621312 
  144000    903.18665   -41.322594    103365.09    45248.273   0.13036724 
  145000    906.01763   -111.07996    103721.84    45390.101   0.13470577 
  146000      899.439    35.338209    103104.22    45060.522   0.13895495 
  147000    908.62564   -4.1698379     103098.6    45520.759   0.14338132 
  148000    898.66609   -166.92958    103546.13      45021.8    0.1477653 
  149000    911.35105    230.03838    103825.08    45657.297   0.15216183 
  150000    894.90573   -273.28484    103570.77    44833.412   0.15668325 
  151000    896.06536   -97.130035    103568.45    44891.508   0.16119023 
  152000    906.39414   -37.018666    103335.32    45408.964   0.16625334 
  153000    898.54578   -252.84433    102979.19    45015.773   0.17108728 
  154000    903.37973   -45.534888    103079.68    45257.947    0.1760352 
  155000    911.76615   -88.961256    103714.31    45678.093   0.18109872 
  156000    909.95823    31.214238    103287.32    45587.519    0.1866283 
  157000    897.65745    110.89778    103373.54    44971.269   0.19162604 
  158000    897.67221   0.84302709    103727.72    44972.008   0.19703051 
  159000      898.517    79.465414    103546.54    45014.331    0.2026528 
  160000    897.17658   -280.74355    103115.76    44947.178   0.20867276 
  161000    901.78604     23.67876    103298.67    45178.105   0.21450847 
  162000    900.28399    182.16826    103302.56    45102.855   0.21995566 
  163000    899.25529   -80.869183    102969.64    45051.318   0.22583303 
  164000    892.71681   -188.74901    102422.79     44723.75   0.23215451 
  165000    904.66752    175.99006    103524.87    45322.463   0.23854471 
  166000    905.92123     34.17732    102941.59    45385.272   0.24504275 
  167000    894.28448    112.01469    102669.69    44802.288   0.25052552 
  168000    899.23814   -404.54968    102809.81    45050.459    0.2574281 
  169000    895.12868    221.56809     103412.4    44844.581   0.26387357 
  170000    894.24491     205.7225    103225.73    44800.306   0.27023248 
  171000    901.65825   -154.87608    102958.14    45171.703   0.27688625 
  172000    896.94022   -317.67701    102020.77    44935.337   0.28364706 
  173000    906.85438    -449.1753    102554.24    45432.021    0.2903981 
  174000    912.39421   -401.36826    102986.08    45709.558   0.29843319 
  175000    900.24251    7.9558224    102690.44    45100.776   0.30573463 
  176000    895.52483   -262.41812    102395.07    44864.428   0.31275073 
  177000    896.39161   -316.17325     102736.2    44907.852   0.32045396 
  178000    906.72848    106.85879    102598.09    45425.714   0.32810189 
  179000     892.8777   -230.79963    102308.03    44731.811   0.33599602 
  180000    898.46383   -93.488845    102854.54    45011.667   0.34335518 
  181000     904.5449   -473.02554    102429.25     45316.32   0.34995692 
  182000    893.44439   -303.55636    102478.61    44760.201   0.35957487 
  183000    907.11977     86.72768    102507.04    45445.317   0.36771163 
  184000    896.97734   -275.63479    101916.69    44937.197   0.37622348 
  185000     896.0527   -135.09807    102858.31    44890.873    0.3838885 
  186000    905.78147   -105.31724    102516.15     45378.27   0.39103528 
  187000    893.31075   -537.00646    102270.87    44753.506   0.39926428 
  188000    899.34841    159.23754       102216    45055.984   0.40858449 
  189000    898.05894   -286.17253    102382.36    44991.383   0.41764716 
  190000    901.39833   -486.01071    102028.39    45158.681    0.4253879 
  191000    897.08608    -523.4174    102376.19    44942.644   0.43404779 
  192000    891.18631   -103.35359    101923.24    44647.075   0.44181348 
  193000    899.84312    -61.24564    102356.05    45080.768    0.4516898 
  194000    903.50889    254.87635    101700.68    45264.417   0.46189311 
  195000    911.06023    71.572919    101499.15    45642.728   0.47190575 
  196000    891.80866    179.43418    102022.53    44678.254   0.48065767 
  197000    907.36705    94.796353    102201.51    45457.705   0.49197963 
  198000    899.65573   -275.90761    101812.38     45071.38   0.50060456 
  199000    894.62168   -155.51553    102133.37    44819.181    0.5126582 
  200000    900.19736   -621.43829    101784.06    45098.515   0.52284323 
Loop time of 1024.81 on 50 procs for 100000 steps with 16808 atoms

Performance: 8.431 ns/day, 2.847 hours/ns, 97.579 timesteps/s
98.3% CPU use with 50 MPI tasks x no OpenMP threads

MPI task timing breakdown:
Section |  min time  |  avg time  |  max time  |%varavg| %total
---------------------------------------------------------------
Pair    | 0.019439   | 143.79     | 533.35     |1183.5 | 14.03
Bond    | 0.023856   | 93.606     | 258.88     | 831.5 |  9.13
Neigh   | 102.91     | 106.46     | 109.78     |  22.7 | 10.39
Comm    | 0.86579    | 224.78     | 612.43     |1192.1 | 21.93
Output  | 0.0057926  | 0.0060005  | 0.006861   |   0.2 |  0.00
Modify  | 27.002     | 453.49     | 911.28     |1537.9 | 44.25
Other   |            | 2.674      |            |       |  0.26

Nlocal:    336.16 ave 627 max 0 min
Histogram: 14 1 1 0 1 5 5 5 10 8
Nghost:    5059.38 ave 8829 max 160 min
Histogram: 12 0 4 0 2 4 0 9 10 9
Neighs:    128176 ave 285210 max 0 min
Histogram: 16 0 2 3 6 3 5 4 4 7

Total # of neighbors = 6408784
Ave neighs/atom = 381.294
Ave special neighs/atom = 11.5602
Neighbor list builds = 10112
Dangerous builds = 0
unfix             2

fix               3 all npt temp 700 700 100 iso 100 100 1000
run               100000
Per MPI rank memory allocation (min/avg/max) = 13.92 | 15.42 | 17.05 Mbytes
Step Temp Press PotEng KinEng Density 
  200000    900.19736   -621.43829    101784.06    45098.515   0.52284323 
  201000    707.05762   -214.52106    92184.972    35422.508    0.5485508 
  202000    695.24533   -511.14943    90691.142     34830.73   0.57110704 
  203000    700.44933   -302.18346    91163.163    35091.443   0.58848128 
  204000    696.10361   -273.41038     90754.56    34873.729   0.60230313 
  205000    694.23922   -910.97852    90499.248    34780.326   0.61826763 
  206000    705.10482   -390.60416    90463.446    35324.676   0.63096472 
  207000    699.93827    453.50854    90152.409    35065.839   0.64165106 
  208000    691.45629    657.05626    90561.798    34640.905    0.6479721 
  209000    700.75633    159.56266    91143.198    35106.823   0.66060399 
  210000    695.37343   -179.24414    90389.991    34837.148   0.66639712 
  211000    695.24035   -287.95139    90480.739    34830.481   0.68338733 
  212000    707.80858    720.56765    90615.403     35460.13   0.68261961 
  213000    695.87139   -1113.2461     90270.09    34862.095   0.68913333 
  214000    704.08678    152.36094    90789.956    35273.674   0.69757556 
  215000    702.35978    899.61838     90506.21    35187.154   0.70312145 
  216000    695.91829     58.72095    90180.896    34864.445   0.71031432 
  217000    697.06402    257.57428    89936.112    34921.844   0.72408751 
  218000    697.10823   -539.39918    89859.472    34924.059   0.72359089 
  219000    704.24836   -101.80391    90065.295    35281.768   0.72902863 
  220000    701.45219   -554.34336    89765.785    35141.684   0.74425165 
  221000    699.79102    125.04787    89782.377    35058.462   0.75273122 
  222000    695.54833     452.5809    89567.256     34845.91   0.76443309 
  223000    703.91151    92.028046     90261.59    35264.893   0.77250198 
  224000    693.37451   -155.00479    90003.316    34737.005   0.78347155 
  225000    694.14529   -485.32655    89667.882     34775.62   0.79163165 
  226000     700.5475    775.34141    89689.615    35096.361   0.79368573 
  227000     699.6573   -1501.1102    90304.221    35051.764   0.80090424 
  228000    692.73427    2.5170466    89917.327     34704.93   0.81067454 
  229000    700.92513   -546.60228    89918.904     35115.28   0.82114155 
  230000    697.39983    755.52699     89943.49    34938.667   0.83015065 
  231000    701.10895   -495.78102     90105.19    35124.489   0.83687917 
  232000    698.04718    491.49572     89572.92    34971.099   0.85155429 
  233000    696.90196   -328.79762    89261.065    34913.725   0.85460838 
  234000    702.64838    560.98744    90130.659    35201.612   0.86063962 
  235000    706.24202    1702.7525    89346.881    35381.648    0.8770032 
  236000    704.05505    529.92235    89972.667    35272.084   0.88318274 
  237000    697.35062    305.12689    90020.268    34936.202   0.88420172 
  238000    704.75914   -74.785304    90341.884    35307.358   0.89210396 
  239000    702.54525    974.20159    89747.186    35196.445   0.90795703 
  240000    698.63152    739.22216    89638.333    35000.373   0.91497807 
  241000    708.03175   -769.05766    90181.187     35471.31   0.92032102 
  242000    697.96992    388.45357    90045.949    34967.228   0.92521412 
  243000    697.78219    115.74973    89866.994    34957.823   0.93952068 
  244000    694.77418    24.871485    89986.797    34807.126   0.95196787 
  245000    707.17743   -632.29127    89716.329     35428.51   0.95821902 
  246000    704.78884   -234.31851     89781.58    35308.846   0.98033989 
  247000    695.00452   -1672.4686    89813.963    34818.666   0.98439787 
  248000    691.71661   -350.37927    90168.314    34653.947   0.98846967 
  249000    697.68436    577.79392    89609.341    34952.922    1.0046034 
  250000    700.45896    1433.1188    90076.389    35091.925      1.00842 
  251000    701.59221    696.83387    89748.062    35148.699    1.0147605 
  252000    705.48338    255.98414    89920.268    35343.641    1.0009766 
  253000    702.09421    425.19805    90264.319    35173.849    1.0036646 
  254000    706.61384   -201.41775    89474.048    35400.276     1.021216 
  255000    688.98557   -304.43447    89779.015    34517.126    1.0098098 
  256000    702.18126   -1217.1753    90060.954     35178.21    1.0107363 
  257000    700.23323    476.06991    89736.178    35080.617    1.0190743 
  258000    699.60074   -1659.7518    89764.012     35048.93    1.0120352 
  259000    698.43651   -682.19464    89433.517    34990.604    1.0167934 
  260000    700.63659    715.45542    89276.312    35100.824    1.0185487 
  261000    700.67738   -231.78024    89407.354    35102.868    1.0287531 
  262000    698.33624   -1328.7037    89865.422    34985.581    1.0063601 
  263000    697.87155   -52.949218    90048.069      34962.3    1.0087279 
  264000    698.54626    497.75126        89013    34996.102    1.0108589 
  265000     700.5114    549.49289    89437.812    35094.552    1.0225084 
  266000    703.78318     -277.863     89437.62    35258.464    1.0093852 
  267000    705.09043     235.0855    89875.054    35323.955    1.0093063 
  268000    700.12007    -294.0178    89119.472    35074.948    1.0216615 
  269000    699.56087    349.52008    90198.488    35046.932    1.0166076 
  270000    697.76146     -73.8037    89541.579    34956.785    1.0076994 
  271000    700.21722    405.91454     89780.16    35079.815     1.020923 
  272000    697.20587    1459.4881    89104.979     34928.95    1.0180733 
  273000    698.99558     264.1302    89758.934    35018.612    1.0219114 
  274000    697.46089     1545.584    89461.256    34941.727    1.0207867 
  275000    703.62164   -1029.5479    89919.117    35250.371    1.0187056 
  276000    699.81826   -231.40015    88818.773    35059.827    1.0238718 
  277000    702.05458   -1427.9378    89568.617    35171.864    1.0206155 
  278000     697.7244    284.38739    89502.716    34954.928    1.0076576 
  279000    695.15944    87.200669    89056.928    34826.427    1.0256712 
  280000    697.98657    861.73813    89089.467    34968.062    1.0220974 
  281000    696.66299    192.37509    89492.262    34901.753    1.0298229 
  282000    702.94478     80.66326    88910.381    35216.461    1.0275278 
  283000    700.26986    908.46672     89471.89    35082.452    1.0151331 
  284000    709.59868     -337.234    89839.202    35549.811    1.0186031 
  285000     699.9855   -100.09586    89433.168    35068.206    1.0181298 
  286000    689.85513    164.90105    89790.305     34560.69    1.0133454 
  287000    703.85945   -1343.9909    89212.881    35262.285     1.016921 
  288000    703.73534   -993.08653    89600.391    35256.067     1.026127 
  289000    689.31464   -709.43114    89449.569    34533.612    1.0226507 
  290000     698.0681   -154.73847    89638.875    34972.147    1.0216372 
  291000    702.95361   -667.49012    89164.302    35216.903      1.02036 
  292000    700.88679   -253.27193    89524.898    35113.359    1.0195152 
  293000    696.18282   -218.62894    89293.493    34877.697    1.0238207 
  294000    701.83447    843.95049      89702.5    35160.837    1.0287968 
  295000    697.12357    712.64864    89778.389    34924.827    1.0224586 
  296000    698.33495    1040.4812     89656.59    34985.515    1.0222338 
  297000    701.65401   -282.03978    89601.719    35151.796    1.0221355 
  298000    700.01499   -1046.5497    89869.395    35069.683     1.023616 
  299000    702.05957   -633.71101    89872.888    35172.114     1.024656 
  300000    702.28207    1163.5695    89456.947     35183.26     1.018736 
Loop time of 677.727 on 50 procs for 100000 steps with 16808 atoms

Performance: 12.749 ns/day, 1.883 hours/ns, 147.552 timesteps/s
99.3% CPU use with 50 MPI tasks x no OpenMP threads

MPI task timing breakdown:
Section |  min time  |  avg time  |  max time  |%varavg| %total
---------------------------------------------------------------
Pair    | 157.55     | 302.32     | 379.62     | 383.1 | 44.61
Bond    | 49.265     | 94.623     | 115.27     | 203.7 | 13.96
Neigh   | 63.582     | 67.926     | 74.152     |  39.9 | 10.02
Comm    | 83.173     | 132.34     | 202.68     | 234.5 | 19.53
Output  | 0.0059917  | 0.0061001  | 0.0082033  |   0.4 |  0.00
Modify  | 11.944     | 78.09      | 276.44     | 896.1 | 11.52
Other   |            | 2.425      |            |       |  0.36

Nlocal:    336.16 ave 368 max 283 min
Histogram: 1 1 2 4 7 4 9 8 12 2
Nghost:    7832.08 ave 8208 max 7470 min
Histogram: 1 4 6 9 8 4 5 8 4 1
Neighs:    170880 ave 192853 max 136546 min
Histogram: 2 0 3 5 4 9 6 9 8 4

Total # of neighbors = 8543977
Ave neighs/atom = 508.328
Ave special neighs/atom = 11.5602
Neighbor list builds = 8106
Dangerous builds = 0
unfix             3

fix               4 all npt temp 500 500 100 iso 100 100 1000
run               100000
Per MPI rank memory allocation (min/avg/max) = 15.16 | 16.05 | 17.05 Mbytes
Step Temp Press PotEng KinEng Density 
  300000    702.28207    1163.5695    89456.947     35183.26     1.018736 
  301000    501.17332    683.83205    79208.449    25108.019    1.0611841 
  302000    496.30836    1391.8337     78789.84    24864.292    1.0711095 
  303000    504.38974    -117.4655    79223.817    25269.156    1.0768275 
  304000    493.72385    183.85539    78855.451    24734.812    1.0786045 
  305000     502.1389   -158.38127    78842.951    25156.393    1.0818139 
  306000    500.36996    291.55245    79072.859    25067.771    1.0796021 
  307000     498.9233   -964.30699    78719.536    24995.296    1.0795622 
  308000     496.1524    1234.6034    78590.949    24856.478    1.0940649 
  309000    499.57433    1272.8967    78272.402    25027.912    1.0890105 
  310000    494.39253    205.64194    78344.068    24768.312    1.1009997 
  311000    498.37203   -334.37364    78399.841    24967.678    1.0887236 
  312000    503.18671     1161.955    78619.116    25208.886      1.10387 
  313000    506.40864   -990.07644    78870.899    25370.301    1.0991729 
  314000     506.5775    774.49953    78341.658     25378.76    1.0964818 
  315000    492.48625   -320.18121     78864.74     24672.81    1.0971036 
  316000    498.58048    68.869847    78751.473    24978.121     1.095686 
  317000    496.38682    -633.8452    78560.917    24868.222    1.0996119 
  318000    501.55759    202.14791    78867.446     25127.27    1.0947251 
  319000    498.08388   -813.63502    78427.278    24953.243    1.0990512 
  320000    497.52285   -513.81726    78518.625    24925.136    1.0912958 
  321000    502.59988    242.35437    78172.461    25179.487    1.0993882 
  322000    501.24915    343.89643    78714.167    25111.818    1.1013106 
  323000    505.49755   -642.28813    78713.703    25324.656    1.0946064 
  324000    500.15327   -42.895853     78543.85    25056.916    1.0969698 
  325000     499.1692   -1099.7986    78529.763    25007.616    1.0963084 
  326000    503.04634   -123.80261    78432.181    25201.854    1.1081139 
  327000    498.43223      441.335    78173.742    24970.694    1.0986904 
  328000    498.54841    334.05965    78871.564    24976.515    1.1042395 
  329000    502.81601    -288.6982    78374.788    25190.315    1.1014949 
  330000    495.90316   -494.24751    78463.531    24843.992    1.1025426 
  331000    498.31672   -162.25399    78489.494    24964.907     1.106822 
  332000     495.6022    848.86236    78875.654    24828.914    1.1021713 
  333000    500.82392    -650.1016    78582.696    25090.515    1.1050128 
  334000    502.04371    265.84057    78490.802    25151.624    1.1063341 
  335000    501.12397   -96.090316    78086.481    25105.546    1.1033384 
  336000    499.98913     637.8503    78215.535    25048.693    1.1123533 
  337000    500.14554    977.69333    78553.907    25056.529     1.106811 
  338000    496.96125    616.24564    78577.066    24897.001     1.110694 
  339000    496.97754    896.37308    78262.979    24897.817    1.1097238 
  340000    498.37811    41.543393    77818.313    24967.983    1.1100133 
  341000    502.83293    1239.3337    78521.104    25191.162     1.103829 
  342000     499.0993    876.21286     78132.44    25004.113    1.1049939 
  343000    496.37288   -42.227029     78971.21    24867.524    1.1010185 
  344000    497.79238    1068.3493    78642.451    24938.639    1.1067155 
  345000    496.57618   -1136.3233    78699.939    24877.709    1.0981585 
  346000    509.29064   -421.35612    78143.444    25514.684    1.1015101 
  347000    498.74206    692.67945    78107.186    24986.216    1.1018012 
  348000    500.98576    737.96506    78224.097    25098.622    1.0974919 
  349000    505.15681    727.89822    78124.837    25307.585    1.1009161 
  350000    498.19989    656.65065    77995.514    24959.055    1.1170455 
  351000    499.10934    1133.2678    78519.326    25004.617     1.105283 
  352000    499.86952   -536.55299    78156.603      25042.7    1.1105398 
  353000    501.31997    978.94163    78564.892    25115.366    1.1088084 
  354000    499.75614    145.40051    78511.079     25037.02    1.1096728 
  355000    504.05521   -1059.0116    78268.644    25252.397    1.1115046 
  356000    493.37049    1311.3079    78236.377    24717.109    1.1085815 
  357000    496.76124   -481.60004    78962.074     24886.98    1.1055765 
  358000    497.60842    989.36667    78248.146    24929.423    1.1145719 
  359000    497.17271     389.7323    78169.434    24907.595    1.1204034 
  360000    502.24538    264.31693    78546.093    25161.728    1.1111025 
  361000    500.87192    -695.1422    78516.373    25092.919    1.1118491 
  362000     504.3866    831.38179    78186.102    25268.999    1.1126885 
  363000    497.91573   -429.34524    78571.065    24944.819    1.1025589 
  364000    494.66305    1075.9999    78035.552    24781.864    1.1091527 
  365000     506.8243    714.95578    78844.197    25391.124    1.1039727 
  366000    494.65543    683.82969    78629.792    24781.482    1.1137968 
  367000    495.15029   -714.25946    78669.243    24806.274    1.1090355 
  368000    498.95519    297.53042    78385.211    24996.894    1.1139904 
  369000    491.17991    434.86044    78979.082    24607.364    1.1040636 
  370000    499.36915    494.49216    77925.916    25017.632    1.1102108 
  371000    506.39074    625.04547    78292.712    25369.404    1.1132798 
  372000    504.59301     36.35129     78436.49     25279.34    1.1097715 
  373000    496.35792   -244.34191    78513.962    24866.774     1.108535 
  374000    500.44196   -984.04988    78180.461    25071.379    1.1152278 
  375000    500.13515    551.09203    78480.025    25056.008    1.1099252 
  376000    500.30719    -1000.631    78528.282    25064.627    1.1179009 
  377000     499.5463   -868.55908    78566.742    25026.508      1.10006 
  378000    500.29812   -217.40531    77509.622    25064.173    1.1084956 
  379000    502.31272    247.57878    78560.832    25165.101    1.1064272 
  380000    500.17394    690.02533    78119.383    25057.951    1.1161984 
  381000    498.15338    655.63527    78017.211    24956.724    1.1133772 
  382000    503.64673   -211.21142    77703.208    25231.933    1.1044059 
  383000    498.96998    321.08572    78501.759    24997.635    1.1048084 
  384000    497.92155   -228.48297    78446.465     24945.11    1.1076067 
  385000    497.79091    718.25785    78393.653    24938.565    1.1073634 
  386000    497.82375    106.84921    78036.253    24940.211    1.1086757 
  387000    506.79805   -328.25323     78414.08    25389.809     1.114327 
  388000    498.97136    758.60144    78168.369    24997.704    1.1069364 
  389000    497.94017     633.3971    77916.549    24946.043    1.1142037 
  390000    505.51732    370.11435    78265.257    25325.647    1.1084668 
  391000    499.96571   -288.62458     78320.68    25047.519    1.1113234 
  392000    503.04421   -869.97724    78434.121    25201.748    1.1062921 
  393000    499.31726   -221.65387    78520.248    25015.033    1.1115815 
  394000    503.94222    492.25576    78352.879    25246.736     1.102841 
  395000    497.94772    190.10777    78748.071    24946.421    1.1089571 
  396000    503.46774    1332.4009    78047.949    25222.966    1.1153254 
  397000    498.73271   -410.09069    78598.638    24985.748     1.107524 
  398000    496.94973     508.3289    78532.433    24896.423    1.1055979 
  399000    498.90589    560.46238    77880.318    24994.424    1.1092668 
  400000    501.38996   -560.26757    78331.993    25118.872    1.1097895 
Loop time of 589.536 on 50 procs for 100000 steps with 16808 atoms

Performance: 14.656 ns/day, 1.638 hours/ns, 169.625 timesteps/s
99.6% CPU use with 50 MPI tasks x no OpenMP threads

MPI task timing breakdown:
Section |  min time  |  avg time  |  max time  |%varavg| %total
---------------------------------------------------------------
Pair    | 308.5      | 336.61     | 360.24     |  63.4 | 57.10
Bond    | 86.159     | 94.56      | 105.25     |  44.8 | 16.04
Neigh   | 44.155     | 47.243     | 52.47      |  37.9 |  8.01
Comm    | 47.382     | 85.166     | 125.86     | 169.4 | 14.45
Output  | 0.0059817  | 0.00607    | 0.0073876  |   0.2 |  0.00
Modify  | 8.0673     | 23.639     | 37.203     | 191.7 |  4.01
Other   |            | 2.314      |            |       |  0.39

Nlocal:    336.16 ave 368 max 304 min
Histogram: 3 3 9 4 4 7 8 4 6 2
Nghost:    8268.84 ave 8477 max 8112 min
Histogram: 3 7 5 6 10 6 7 3 2 1
Neighs:    186156 ave 204418 max 165130 min
Histogram: 3 1 4 10 5 5 6 8 3 5

Total # of neighbors = 9307808
Ave neighs/atom = 553.772
Ave special neighs/atom = 11.5602
Neighbor list builds = 6290
Dangerous builds = 0
unfix             4

fix               5 all npt temp 300 300 100 iso 100 100 1000
run               100000
Per MPI rank memory allocation (min/avg/max) = 15.43 | 16.1 | 17.05 Mbytes
Step Temp Press PotEng KinEng Density 
  400000    501.38996   -560.26757    78331.993    25118.872    1.1097895 
  401000     296.9084   -349.59544     68024.84    14874.658    1.1577371 
  402000    297.60166   -1065.2323    68100.238    14909.389    1.1594038 
  403000    301.23818    555.99068    68176.123    15091.573    1.1679807 
  404000    298.79547    690.97399    67479.537    14969.197    1.1691462 
  405000    301.82233    654.47283    67604.337    15120.838    1.1658356 
  406000    300.68022    63.470731    67605.882     15063.62    1.1659478 
  407000    299.43912    2075.0272    67470.534    15001.443    1.1638317 
  408000    301.47698     397.2065    68179.638    15103.537    1.1691427 
  409000    303.40471    1019.7078    67410.288    15200.113    1.1659597 
  410000    300.04665    108.30897    67741.363    15031.879    1.1702085 
  411000    303.44679   -795.12231      67664.7    15202.221    1.1680747 
  412000    296.88924    629.41126    67733.119    14873.698    1.1731747 
  413000    303.71474   -409.63573    67619.303    15215.645    1.1709639 
  414000    300.81173    824.28809     67500.96    15070.209    1.1690964 
  415000    297.87932   -68.446748    67536.691      14923.3    1.1743287 
  416000    301.47668   -433.06869    67398.656    15103.522    1.1725869 
  417000    299.37224    395.82421      67171.1    14998.092    1.1754555 
  418000    300.19255    201.09085     67412.63    15039.189    1.1712499 
  419000    297.76189    3.7668114    67563.382    14917.417    1.1779333 
  420000    298.29036    335.02039    67787.051    14943.892    1.1739784 
  421000    301.45002   -217.59088    67213.244    15102.186    1.1737835 
  422000    297.04294   -48.337696    67469.695    14881.398    1.1752791 
  423000    301.56591   -201.86418    67938.131    15107.992    1.1703312 
  424000    298.43959    13.524367    67219.125    14951.368    1.1773911 
  425000    302.42432   -100.13468    67602.861    15150.997    1.1697607 
  426000    302.03704   -281.60239    67498.232    15131.595    1.1761225 
  427000    296.32531    444.27842    67911.568    14845.446     1.177206 
  428000    300.11869    1267.5294    67714.858    15035.489    1.1799337 
  429000    300.13849    854.80351    67676.293     15036.48    1.1751855 
  430000    300.88967    542.40733      67173.9    15074.113    1.1751918 
  431000    300.24155    747.66227    67740.818    15041.644    1.1748092 
  432000     299.8947    900.83965    67235.338    15024.267    1.1769749 
  433000    299.18885    262.28681    67074.716    14988.905     1.180475 
  434000    299.76222   -51.343443     67646.38     15017.63    1.1861584 
  435000    296.38634    -126.8435    67862.468    14848.503    1.1758906 
  436000    301.20947   -866.40556    67552.901    15090.135    1.1735105 
  437000    300.55363    767.98285    67438.549    15057.279    1.1800452 
  438000    300.43464   -108.33413    67948.984    15051.317    1.1787736 
  439000    300.29564   -670.66356    67616.856    15044.354    1.1758027 
  440000    300.56058   -196.91965    67380.476    15057.627    1.1767299 
  441000    297.70962    1187.1696    67039.442    14914.798    1.1775351 
  442000    299.42565   -154.55301    67838.368    15000.768    1.1790065 
  443000    299.82703   -1039.3767    67305.885    15020.877    1.1776836 
  444000     300.3024    672.50188     66886.87    15044.692    1.1871976 
  445000    302.08907   -300.81457    67350.343    15134.202    1.1825136 
  446000    299.91303    264.14319    67275.187    15025.185    1.1813812 
  447000    297.33118   -395.70634    67287.387    14895.839    1.1830286 
  448000    301.76805   -454.14614    67284.359    15118.119    1.1776511 
  449000    301.40182    184.72092    67533.726    15099.771     1.175607 
  450000    302.15327   -175.45922    67358.579    15137.418    1.1805456 
  451000    296.71433   -557.59341    67245.817    14864.935    1.1765898 
  452000    299.87253   -1087.3374     67420.48    15023.156    1.1784379 
  453000    302.14702    128.69947    67878.857    15137.105    1.1835624 
  454000    302.59975    569.42051    67700.954    15159.786    1.1862412 
  455000    296.54658   -201.22139    67484.706    14856.531    1.1803942 
  456000     299.3696   -1511.8768    67024.559     14997.96    1.1791273 
  457000    302.34647    676.04725    67790.862    15147.097    1.1843676 
  458000    301.64857   -92.375548    67189.268    15112.133    1.1810145 
  459000     299.8787    491.41897      67483.2    15023.465    1.1842673 
  460000     297.6743    212.24839     67156.66    14913.028    1.1813273 
  461000    300.06425    65.553325    67468.886    15032.761    1.1795593 
  462000    301.87118   -64.557937    67507.461    15123.285    1.1801667 
  463000      298.399    874.43088    67230.346    14949.335    1.1797717 
  464000    298.41071   -226.32514    67784.532    14949.921    1.1819758 
  465000    299.36345    529.71866    67431.533    14997.652    1.1871359 
  466000    297.62683   -592.52839    67748.388     14910.65    1.1809209 
  467000    298.93472   -632.49074    67584.721    14976.173    1.1785955 
  468000    300.84144    429.64754    67568.249    15071.697     1.183041 
  469000    298.48992    335.49727    67275.334     14953.89    1.1847576 
  470000    299.65705   -186.17127    67891.056    15012.361    1.1819991 
  471000     302.2448    3.9557759    67358.633    15142.003    1.1835945 
  472000     297.0954    203.99065    67276.516    14884.026    1.1810037 
  473000    300.08424    208.96929    67812.234    15033.763    1.1836553 
  474000    301.31735    291.45027    67146.258     15095.54    1.1817892 
  475000     297.7139   -646.72155    67210.293    14915.012     1.180411 
  476000      300.185    420.80119    67354.654    15038.811    1.1787445 
  477000    295.60823    417.83703    67472.173    14809.521    1.1777471 
  478000    300.70245    252.31483    67385.976    15064.734    1.1847171 
  479000    304.43066   -350.91657    67389.353    15251.512    1.1831765 
  480000    301.55392   -131.22674    67294.744    15107.391    1.1799992 
  481000    299.67002    159.82521    67707.165    15013.011    1.1854138 
  482000    300.65211   -1031.6915    67346.981    15062.212    1.1823594 
  483000    299.68304    1358.0428    67394.469    15013.663    1.1749168 
  484000    301.38633     104.9171    67740.644    15098.995    1.1787279 
  485000    297.62667   -237.47399    67900.108    14910.642    1.1841255 
  486000    303.78076   -654.70074    67686.441    15218.953    1.1806379 
  487000    298.46123   -836.90576    67257.678    14952.452    1.1804889 
  488000    297.94015    165.10037    67545.064    14926.347    1.1833567 
  489000    300.07434    248.58923    67639.401    15033.267    1.1852951 
  490000     300.9618   -420.94726    67704.119    15077.727    1.1825928 
  491000    300.06468    565.72373    67171.355    15032.783    1.1867317 
  492000    297.92278    83.367368    67534.583    14925.477    1.1819947 
  493000    305.08939    438.34905    67602.579    15284.513    1.1812925 
  494000     300.9518   -608.19852    67022.754    15077.226    1.1803824 
  495000    295.67881   -250.09584    67775.617    14813.057    1.1819215 
  496000    298.21538   -517.65011    67543.121    14940.136    1.1849415 
  497000    301.70338   -331.35863    67438.133    15114.879    1.1788553 
  498000    299.13677   -769.62264    67078.867    14986.296     1.180809 
  499000    298.88155   -13.280494    67876.187     14973.51    1.1794456 
  500000    296.04538    260.44573    67351.134    14831.422    1.1799931 
Loop time of 579.256 on 50 procs for 100000 steps with 16808 atoms

Performance: 14.916 ns/day, 1.609 hours/ns, 172.635 timesteps/s
99.6% CPU use with 50 MPI tasks x no OpenMP threads

MPI task timing breakdown:
Section |  min time  |  avg time  |  max time  |%varavg| %total
---------------------------------------------------------------
Pair    | 320.35     | 356.22     | 384.84     |  62.5 | 61.50
Bond    | 87.979     | 94.177     | 104.41     |  45.9 | 16.26
Neigh   | 30.97      | 33.284     | 37.335     |  35.1 |  5.75
Comm    | 40.154     | 78.058     | 118.36     | 182.8 | 13.48
Output  | 0.0059297  | 0.0060799  | 0.0073969  |   0.2 |  0.00
Modify  | 8.5356     | 15.326     | 22.775     |  98.2 |  2.65
Other   |            | 2.186      |            |       |  0.38

Nlocal:    336.16 ave 368 max 300 min
Histogram: 1 1 5 2 9 13 8 9 1 1
Nghost:    8620.22 ave 8738 max 8460 min
Histogram: 2 2 3 7 6 6 5 4 9 6
Neighs:    198105 ave 222842 max 176262 min
Histogram: 3 3 3 6 11 11 9 3 0 1

Total # of neighbors = 9905246
Ave neighs/atom = 589.317
Ave special neighs/atom = 11.5602
Neighbor list builds = 4405
Dangerous builds = 0
unfix             5

fix               6 all npt temp 300 300 100 iso 1 1 1000
run               400000
Per MPI rank memory allocation (min/avg/max) = 15.43 | 16.11 | 17.05 Mbytes
Step Temp Press PotEng KinEng Density 
  500000    296.04538    260.44573    67351.134    14831.422    1.1799931 
  501000    297.77095     603.4142    67749.387     14917.87    1.1749449 
  502000     303.9625   -149.37717    67684.614    15228.058    1.1773434 
  503000    296.76841   -281.44398    67499.906    14867.645    1.1841887 
  504000     302.0689    60.594703    67807.417    15133.191    1.1793569 
  505000     302.2463   -261.74393    67811.811    15142.079    1.1816061 
  506000    297.19857   -249.12206    67838.475    14889.195    1.1791984 
  507000    299.02489   -530.91097    67923.499    14980.691    1.1764276 
  508000      302.273    49.846905    67529.768    15143.416    1.1741096 
  509000    297.93177   -113.56455    67817.471    14925.927    1.1810236 
  510000    300.22134   -32.801924    67622.555    15040.631    1.1830067 
  511000    302.03308   -524.98918    67726.121    15131.396    1.1776347 
  512000     298.0329   -20.443369    67329.574    14930.994    1.1775657 
  513000    302.71046    185.01191    67717.454    15165.332    1.1773032 
  514000    298.76271   -205.88578    67458.915    14967.556    1.1766758 
  515000    297.15276    486.48501    67348.563      14886.9    1.1722447 
  516000    300.83509   -83.441108     67524.25    15071.379    1.1780118 
  517000    303.80887   -221.15584    67471.706    15220.361    1.1771422 
  518000    301.26013   -971.73302    67397.263    15092.673    1.1785201 
  519000    297.69316    183.25028    67578.104    14913.973    1.1777093 
  520000    297.75161    184.17606     67496.83    14916.901    1.1757001 
  521000    295.91888    155.09509    67681.131    14825.084    1.1772482 
  522000    304.29596   -529.78602    67210.118    15244.763    1.1764137 
  523000    298.12305    71.015468    67617.991     14935.51    1.1789372 
  524000    299.41467    821.19322    67319.967    15000.218    1.1838792 
  525000    302.92871    430.76737    67495.008    15176.266     1.182053 
  526000    299.15655    413.85269    67059.176    14987.287    1.1810916 
  527000    298.64779    122.91882    67529.524    14961.799    1.1758626 
  528000    301.31918    -340.2823    67405.604    15095.631    1.1837671 
  529000    297.54484   -296.08565    67376.072    14906.543    1.1814613 
  530000     300.9154     536.2299    67859.456    15075.403    1.1892877 
  531000    299.69776    666.04964     67546.34    15014.401    1.1835602 
  532000     298.0704    291.33833    67388.058    14932.873    1.1794937 
  533000    300.83616   -23.311446     67448.35    15071.433    1.1779892 
  534000    302.20403    602.55141     67808.77    15139.961    1.1832782 
  535000    297.90225    168.01963     67140.09    14924.448    1.1842809 
  536000    302.21953    506.26192    68036.313    15140.738    1.1793472 
  537000    299.98192   -140.86299     67701.07    15028.636    1.1791553 
  538000    298.89888    -459.6719    67132.158    14974.378    1.1776956 
  539000    300.80197    177.79013    67865.802     15069.72    1.1820049 
  540000    299.31807    282.09764    67486.205    14995.379    1.1781589 
  541000    299.22323   -235.86436    67584.596    14990.628    1.1817607 
  542000    299.27945    180.33322    67611.217    14993.444    1.1806639 
  543000    302.24211    627.97778    67408.369    15141.869    1.1797835 
  544000    297.93874     43.41599    67801.657    14926.276    1.1829324 
  545000    300.46814    708.62625    67650.446    15052.995    1.1787889 
  546000    299.42425   -1936.6659    67407.776    15000.698    1.1786828 
  547000    302.78772    2.1441278    67650.893    15169.203    1.1816053 
  548000    300.30251   -291.10349    67420.169    15044.698    1.1810706 
  549000    303.59007    833.89861    67672.559      15209.4    1.1862125 
  550000    298.70981   -120.22278    67099.218    14964.906    1.1811574 
  551000    298.01373   -780.73167    67498.087    14930.033    1.1744614 
  552000     300.4812   -1033.5489    67643.081     15053.65    1.1744206 
  553000    301.98228   -304.26556     67724.37    15128.851    1.1824127 
  554000    297.23752    569.26823    67189.251    14891.146     1.182056 
  555000    294.57931   -44.689185    67602.864    14757.974    1.1753524 
  556000    303.06844    689.37741    67442.154    15183.266    1.1822517 
  557000     301.9803    171.87067    67623.032    15128.753    1.1759902 
  558000    303.70246   -168.52798    66876.113     15215.03    1.1794928 
  559000    299.91903     468.4515    67705.535    15025.486    1.1802687 
  560000    292.83434    545.17717    67194.395    14670.554    1.1844628 
  561000    299.56335   -396.67098    67722.866    15007.667     1.179666 
  562000    297.64459   -331.30824    67452.635     14911.54    1.1782181 
  563000    299.00157    695.77436    67538.167    14979.523    1.1789749 
  564000    299.81292    431.13494    67140.275     15020.17    1.1805933 
  565000    301.59898    -19.99124    68046.541    15109.649    1.1748953 
  566000    300.72576    246.28013    67224.635    15065.902    1.1804483 
  567000    299.64089    117.41088    67635.017    15011.551    1.1809248 
  568000    304.28283    -549.7433    67221.407    15244.106    1.1732711 
  569000    300.45344    190.47502    67562.207    15052.259    1.1771576 
  570000    299.13902    -133.0186    67393.184    14986.408    1.1783001 
  571000    298.86023    220.22109    67126.249    14972.442    1.1791848 
  572000    299.76024   -94.850145     67547.57    15017.531     1.182113 
  573000    297.92198   -191.08748    66913.429    14925.437    1.1808436 
  574000     298.6465    927.39782    67573.766    14961.734    1.1812236 
  575000    302.69575    573.49385    67533.882    15164.596    1.1784952 
  576000    299.42473    98.045925    67237.791    15000.722    1.1757263 
  577000    302.51737   -37.205025    67395.334    15155.659    1.1699249 
  578000    295.22453    307.95477    67673.336    14790.299    1.1781337 
  579000    296.92062    38.838932    67729.171     14875.27    1.1783874 
  580000    301.82354    539.91253    67422.792    15120.899    1.1801381 
  581000    298.69678    -57.74265    67071.665    14964.253    1.1823185 
  582000     301.1324    703.36484    67571.151    15086.274      1.17769 
  583000    299.62056    301.99465     67401.33    15010.533     1.173562 
  584000    301.80484     246.7259    67398.897    15119.962    1.1767301 
  585000     300.1789    387.60147     67638.19    15038.505    1.1737771 
  586000    299.39306   -510.84987    67363.601    14999.136     1.180153 
  587000    296.82994    378.59321    67548.141    14870.727    1.1805964 
  588000    300.47209    430.26824    67465.132    15053.194    1.1850459 
  589000    295.37502    432.22149    67298.476    14797.838    1.1797666 
  590000     296.1469    734.50631    67552.214    14836.508    1.1770453 
  591000    303.25722     162.2271    67497.094    15192.724    1.1746073 
  592000    299.29153   -571.57136    67414.427    14994.049    1.1780119 
  593000    300.86363    -84.78015    67080.752    15072.809    1.1753149 
  594000    292.97056   -9.9792826    67388.683    14677.378    1.1723888 
  595000    301.08158   -722.64716     67551.59    15083.728    1.1755535 
  596000    301.40428    -1186.472    67311.955    15099.895    1.1812558 
  597000    301.68093    1264.3078    67149.308    15113.754    1.1802799 
  598000    300.09386    433.73881    67442.538    15034.245    1.1788615 
  599000     295.7437    -216.1197    67229.403    14816.308    1.1775569 
  600000    300.63326    1567.4209    67474.144    15061.268    1.1785534 
  601000    303.74284   -774.44154    67554.999    15217.053     1.175442 
  602000    299.26067   -506.34503    67609.363    14992.503    1.1783463 
  603000    302.71191    131.80182    67674.637    15165.405    1.1733022 
  604000    297.96301      82.3783    67768.733    14927.492    1.1765875 
  605000    299.42702   -787.74546    67663.581    15000.837    1.1830432 
  606000    303.16002    -201.3213    67529.675    15187.854    1.1788121 
  607000    298.98212    771.32027    67330.019    14978.548    1.1785787 
  608000    299.10883   -351.93736    67418.104    14984.896    1.1792036 
  609000    300.41701   -566.11899    67253.291    15050.434    1.1796071 
  610000    297.96986   -107.48482    67526.076    14927.835    1.1788882 
  611000    303.43174    567.55775    67481.595    15201.467    1.1831636 
  612000    299.20304    538.97441    67640.893    14989.616     1.183296 
  613000    297.48359    -359.9506    67272.554    14903.474    1.1812931 
  614000    301.02572   -527.75782    67637.972    15080.929    1.1786271 
  615000    297.39281    737.25652    67322.546    14898.926    1.1806261 
  616000    299.24557    533.69064    67487.164    14991.747    1.1823204 
  617000    299.73444   -770.35604    67169.684    15016.238       1.1768 
  618000    298.83839    113.22154    67235.241    14971.348    1.1777056 
  619000    298.95847    964.28516    67586.718    14977.363    1.1789556 
  620000    300.76319    500.98188    67698.765    15067.777    1.1750017 
  621000     299.2379   -412.19219    67085.475    14991.362    1.1786988 
  622000    303.95085   -371.13973    67782.693    15227.474    1.1813949 
  623000    301.20779   -260.16869     67218.79    15090.051    1.1795618 
  624000    299.88064   -699.71177    67417.703    15023.563    1.1850507 
  625000     301.9182   -1135.2076    67615.872    15125.641    1.1837224 
  626000    297.04721   -635.52269    67375.327    14881.612     1.182418 
  627000    303.19626   -51.486487    67420.619     15189.67    1.1755035 
  628000    302.50288   -64.462111    67359.127    15154.933    1.1790177 
  629000    299.49455    809.97448    67539.066     15004.22    1.1783673 
  630000    299.43448    843.73128    67502.135    15001.211    1.1821646 
  631000     299.0191   -555.82138    67133.064    14980.401     1.176302 
  632000    299.58459    1128.4445    67207.366    15008.731    1.1766154 
  633000    296.66655   -390.24346    67371.684    14862.542    1.1798585 
  634000     302.0625   -326.62553    67163.808     15132.87    1.1803913 
  635000    298.77363    199.05444    67254.344    14968.103    1.1773694 
  636000    302.39941   -1322.0458     67726.97    15149.749    1.1760998 
  637000    300.37294   -322.20212    67555.362    15048.226     1.178894 
  638000    299.15627   -495.03714    67181.192    14987.273    1.1774143 
  639000    299.80111   -144.14349    67576.344    15019.578    1.1829078 
  640000    301.30216   -327.67188    67448.488    15094.779    1.1796335 
  641000    300.39075    -333.2689    67332.634    15049.118    1.1791452 
  642000    302.63609    202.14591    67329.937    15161.607     1.177447 
  643000    299.74054   -177.97922     67425.39    15016.544    1.1768237 
  644000    298.79532    1531.5123    67153.074     14969.19    1.1796582 
  645000    303.07592   -246.66574    67095.854    15183.641    1.1775812 
  646000    301.69278   -335.24928     67541.35    15114.348    1.1789096 
  647000    297.14426   -1240.6553    67093.703    14886.474    1.1783128 
  648000     298.2843    -226.1057    67903.834    14943.588    1.1735694 
  649000    300.66516     181.0138    67097.499    15062.866    1.1771692 
  650000    299.71363   -509.77145    67164.161    15015.196     1.182877 
  651000    300.56696    -752.3652    67789.365    15057.946    1.1786219 
  652000    297.03697    1128.6752    66984.454    14881.099    1.1759196 
  653000    302.99082   -51.728865    67294.085    15179.378    1.1784101 
  654000     299.5075    334.48782    67241.343    15004.869    1.1758233 
  655000    297.50196   -813.45933    67343.818    14904.394    1.1785895 
  656000    302.92806    799.26107    67205.795    15176.234    1.1835886 
  657000    301.02147    110.67883    67068.517    15080.716     1.177779 
  658000    300.13859    456.01773    67217.088    15036.486    1.1797456 
  659000      303.226   -8.0012445    67065.126     15191.16    1.1827633 
  660000    298.79206    295.27596    67286.344    14969.026    1.1768897 
  661000    300.10237   -221.73651    67087.685    15034.671    1.1784886 
  662000    300.91239   -755.64045    67246.982    15075.252    1.1849465 
  663000    298.87744    608.98334     67681.01    14973.304    1.1837124 
  664000    299.42423    435.25691    67098.544    15000.697    1.1851064 
  665000    302.75963   -1157.8887    67679.828    15167.796    1.1790502 
  666000    300.17201   -15.016116    66945.338     15038.16    1.1803839 
  667000    299.81527   -215.27607    67441.475    15020.288    1.1817876 
  668000    298.73143    331.31608    67226.441    14965.989    1.1822579 
  669000    301.84328   -278.67933    67165.628    15121.888    1.1801271 
  670000    300.05683   -814.20506    67015.935    15032.389    1.1841694 
  671000    301.68834    227.46031    67192.878    15114.126    1.1818657 
  672000    302.15868   -395.63421    66760.445    15137.689    1.1790303 
  673000    300.12192   -70.320704    67306.744     15035.65     1.181066 
  674000    300.01777   -554.30818    67069.185    15030.433    1.1832333 
  675000    296.49637    48.078109    67435.638    14854.016    1.1772652 
  676000    299.13879   -442.87232    67290.726    14986.397    1.1785453 
  677000    297.74171    439.24421     67658.49    14916.406    1.1815382 
  678000    300.11501   -178.21436    67623.573    15035.304    1.1809953 
  679000    296.33282    604.81768    67165.527    14845.822    1.1785986 
  680000    301.83171    145.97716    66929.944    15121.308    1.1752785 
  681000    302.32343   -367.30162    67546.436    15145.943    1.1831201 
  682000    299.98231   -664.36445    67272.082    15028.656    1.1786933 
  683000    303.13777    98.589555    67287.837     15186.74    1.1793572 
  684000    299.75873   -662.00775    67246.566    15017.455    1.1781622 
  685000    297.35942    122.70009    67455.127    14897.253      1.17778 
  686000    300.08305    961.33694    67375.902    15033.703    1.1782842 
  687000    298.47104    512.53414    66823.785    14952.944    1.1809154 
  688000    301.36904    838.53751    67196.091    15098.129    1.1794709 
  689000    302.73879   -741.88525     67344.51    15166.752    1.1807534 
  690000    300.88171    -114.0549     67114.39    15073.715     1.184631 
  691000     299.1348   -279.21726    66888.066    14986.197    1.1801054 
  692000    299.87045   -420.30613    67294.152    15023.052    1.1789975 
  693000    299.00964    -73.04238    67334.903    14979.927    1.1828254 
  694000    302.24646   -63.394146    67012.729    15142.087    1.1853154 
  695000    300.43234   -69.742574    67607.814    15051.202    1.1788055 
  696000     298.8831    48.577086    67520.621    14973.588    1.1770579 
  697000     300.0395   -355.52558     67537.29    15031.521    1.1830304 
  698000    301.00143    117.32746    67317.877    15079.713    1.1818694 
  699000    298.92261    130.11861     67230.32    14975.567    1.1846131 
  700000    298.62106    255.77127    67552.505     14960.46    1.1833623 
  701000    296.62226   -140.43771    67508.134    14860.323    1.1769755 
  702000    301.42396    87.858664    67734.825     15100.88    1.1782753 
  703000    302.59698    135.99792    67571.917    15159.647     1.178946 
  704000    300.02346    460.96806     67318.45    15030.718    1.1815702 
  705000    298.90577    892.13442    67326.946    14974.723      1.17842 
  706000    298.50957    675.57603    67669.841    14954.874    1.1817335 
  707000    300.03675    690.94726    67392.472    15031.383    1.1757028 
  708000    300.90262   -44.493034    67188.755    15074.762    1.1789483 
  709000     302.1176   -590.32464    67697.371    15135.631    1.1804467 
  710000    298.58689   -22.885625    67403.796    14958.748     1.176966 
  711000    299.81801   -291.12639    67214.363    15020.425    1.1790406 
  712000    297.52894   -1356.1025    67103.116    14905.746    1.1829866 
  713000    303.32576   -678.60548    67124.709    15196.158    1.1810491 
  714000    301.80251    263.81505     67371.39    15119.845    1.1789975 
  715000    298.47169    357.04052    67049.873    14952.976     1.179612 
  716000    299.28125   -436.45041    67278.366    14993.534    1.1763435 
  717000    299.85334   -172.38298    67584.145    15022.195    1.1809122 
  718000    299.44395    1112.8554    67704.923    15001.685    1.1786095 
  719000    299.05315   -366.23175    67497.498    14982.107    1.1708945 
  720000    299.64639    113.84014    67646.548    15011.827    1.1792612 
  721000    301.29066    232.13413    67261.335    15094.202    1.1813998 
  722000    299.74602   -178.13555    67263.219    15016.818    1.1770973 
  723000    299.06425    697.64466    67199.948    14982.663    1.1745753 
  724000    299.84128    99.509184    67580.802    15021.591    1.1754541 
  725000    302.31605   -416.29644    67461.261    15145.573    1.1764077 
  726000    300.67202    866.54049    67622.377     15063.21    1.1812156 
  727000    296.45175   -377.23103    67445.821    14851.781    1.1802847 
  728000    298.53847   -328.65053    67369.621    14956.322    1.1782915 
  729000    303.82425   -394.65363    67285.312    15221.131    1.1787413 
  730000    302.29696     767.4841    67718.773    15144.617    1.1703624 
  731000    296.98878   -408.41473    67310.343    14878.685    1.1781086 
  732000      299.757    269.26382    67415.566    15017.369    1.1793886 
  733000    297.51561    170.49769    67198.772    14905.078    1.1846309 
  734000    299.39844    385.12187    67210.405    14999.405    1.1785981 
  735000    297.31816    -822.6258    67544.079    14895.186    1.1760498 
  736000    299.37236    80.479977    67572.984    14998.098    1.1763296 
  737000    299.04033     294.9707    67189.284    14981.464    1.1793412 
  738000    295.33567   -31.560271    67568.752    14795.867    1.1758544 
  739000    300.17097   -203.63145    67217.713    15038.108    1.1804579 
  740000    298.05297    447.96434     67471.78    14931.999    1.1830355 
  741000    296.91608   -334.51852    67550.326    14875.043    1.1813556 
  742000    299.24776    365.93091    67708.928    14991.856    1.1796469 
  743000    299.30698   -623.51649    67580.063    14994.823    1.1733289 
  744000     297.2678    104.32204    67279.771    14892.663    1.1746944 
  745000    300.86546    746.31794    67450.843    15072.901    1.1776645 
  746000    296.26791    -114.2697    67203.062    14842.571    1.1791803 
  747000    300.77138    883.97245    67298.291    15068.187    1.1832219 
  748000    298.01519    327.25383    67112.885    14930.106    1.1787717 
  749000    300.16642    247.80374    67379.131     15037.88    1.1812256 
  750000    302.32788    175.25344    67370.537    15146.166    1.1802789 
  751000    300.69037    337.36993    67423.201    15064.129    1.1806567 
  752000    296.79617    405.03322    67099.818    14869.035    1.1804431 
  753000    298.06372   -14.399301    67434.324    14932.537    1.1768867 
  754000    300.71727    428.37417    67674.062    15065.476    1.1809463 
  755000      300.447     353.5716    67151.238    15051.936    1.1773617 
  756000    301.77783    -743.8576    67160.205    15118.609    1.1815431 
  757000    301.43044   -460.64756    67378.708    15101.205    1.1786345 
  758000    300.47591    452.09548    67093.377    15053.385    1.1760745 
  759000    303.76416    638.63613    67462.991    15218.121    1.1796443 
  760000    298.66664    48.688422    67045.261    14962.743    1.1810006 
  761000    299.94125    -425.1596    67111.344    15026.599    1.1761153 
  762000    299.97911   -1262.6347    67213.233    15028.496    1.1775274 
  763000    301.49527    344.42754    67401.994    15104.453    1.1847864 
  764000    299.07825   -562.73429    67502.207    14983.364    1.1805191 
  765000    301.41553   -561.83816     67449.85    15100.458    1.1753711 
  766000    301.56074   -56.265099    67339.165    15107.733    1.1802338 
  767000    299.36056   -163.79808    67016.173    14997.507    1.1780889 
  768000    303.14508    -381.2963      66777.2    15187.106    1.1790691 
  769000    301.86438   -604.46314    66729.135    15122.945    1.1770125 
  770000    301.25742    405.27543     67452.87    15092.537    1.1781749 
  771000    298.03428   -124.56684    67407.241    14931.063    1.1785573 
  772000    302.64592   -218.32938    67848.982    15162.099    1.1784663 
  773000    297.57183    277.91673    67128.873    14907.895    1.1830183 
  774000    297.22345   -315.41326     67252.99    14890.442    1.1837015 
  775000    301.67239   -769.70035    67104.284    15113.327    1.1824659 
  776000    299.29707    34.323444    67226.439    14994.327    1.1837231 
  777000    301.44158   -525.87382    67613.033    15101.763    1.1797488 
  778000    299.09312    436.33684    67081.564    14984.109    1.1766752 
  779000     298.2596    108.87378     67347.36    14942.351    1.1765952 
  780000    296.48381    354.02734    67084.593    14853.386    1.1780341 
  781000    299.51156   -599.62037    66991.924    15005.072    1.1768802 
  782000    301.95718    720.70187    67317.951    15127.594    1.1820796 
  783000    300.25633    457.20848     66926.07    15042.384    1.1814548 
  784000     299.1637   -302.39259    67174.903    14987.645    1.1784638 
  785000    301.92076    1050.5411    67531.134    15125.769    1.1789794 
  786000    298.99881   -557.00713    67646.035    14979.384    1.1782999 
  787000    296.92409    297.59801    67515.564    14875.444    1.1793569 
  788000    299.00065    6.3425375    67409.879    14979.477    1.1752572 
  789000    300.35483    1057.4623    67355.802    15047.319    1.1762151 
  790000     299.3812    227.87852    67648.262    14998.541    1.1777928 
  791000    303.26254    16.090844    67388.078    15192.991    1.1805949 
  792000    303.69268   -153.34235    67455.111     15214.54    1.1746719 
  793000    299.23015     761.5364    67099.956    14990.974    1.1777245 
  794000    299.70058    128.66864    67754.124    15014.542    1.1813827 
  795000    299.26894    414.16617    66968.826    14992.917    1.1870318 
  796000    300.95589     175.4795     67373.32    15077.431    1.1821426 
  797000    298.86272    381.98769    67013.324    14972.566    1.1762478 
  798000    301.31169   -60.197621    67026.425    15095.256    1.1837586 
  799000    298.82046    -1024.528    67032.063    14970.449    1.1828295 
  800000    298.92023   -296.67233    67051.337    14975.448    1.1844989 
  801000    303.21894    813.28017    66904.018    15190.806    1.1799224 
  802000    296.96918   -304.66875    67319.082    14877.703    1.1822896 
  803000    299.82523    779.88517    67054.764    15020.787    1.1828431 
  804000    296.11938    166.33994    67076.508    14835.129    1.1854112 
  805000    302.50556    673.70075    67581.922    15155.067    1.1830476 
  806000    301.10701    135.82905    67060.593    15085.002    1.1801218 
  807000    301.93523   -209.12378    67193.169    15126.494    1.1794841 
  808000     301.3575    132.98904    66752.103    15097.551    1.1837984 
  809000    297.79001     32.89451    67263.324    14918.825    1.1792924 
  810000    300.54328   -397.91184     67115.63     15056.76    1.1829711 
  811000    300.21737   -408.99181     66802.36    15040.432    1.1785688 
  812000    301.44326   -189.72958    67314.278    15101.847    1.1806375 
  813000    299.56723   -197.60384    67447.555    15007.861    1.1859802 
  814000     301.3039   -298.25498    66924.532    15094.866    1.1801599 
  815000    300.80513    870.51275    67360.978    15069.878    1.1832578 
  816000    298.73368   -86.634989     67162.21    14966.102    1.1800767 
  817000    304.16757    328.05383    67074.548    15238.331    1.1810892 
  818000     303.2162   -565.45892    67253.824    15190.669    1.1772755 
  819000    299.91702   -480.42911    67235.197    15025.385    1.1799111 
  820000    299.15981    106.39851    67081.342     14987.45    1.1815029 
  821000    302.08795   -1044.7225    67338.934    15134.145    1.1848314 
  822000     303.1921    257.72889    67330.346    15189.462    1.1757491 
  823000    299.05198   -1184.5304    67171.623    14982.048    1.1791183 
  824000    299.06738    -347.1906    67373.725    14982.819    1.1793477 
  825000    301.59233    525.46324    67080.308    15109.316    1.1790646 
  826000    303.30052    923.36655    67263.426    15194.894     1.181688 
  827000    300.34365   -17.573882    67258.617    15046.759    1.1831209 
  828000    300.10557    1064.3565    67497.651    15034.831     1.183279 
  829000    297.39782   -163.86898    67149.343    14899.177    1.1836354 
  830000    298.92435    -784.5814    67283.354    14975.654    1.1756358 
  831000    302.45734    -142.6231    67925.753    15152.651    1.1809967 
  832000    300.86407   -500.22777    67374.115    15072.831    1.1798339 
  833000    302.47181   -405.98895    67367.571    15153.376    1.1767508 
  834000    301.73216    700.36633    67177.294    15116.321     1.180289 
  835000    301.74091   -34.387196     67453.91    15116.759     1.181573 
  836000    299.02424    274.78732    66958.224    14980.658     1.178274 
  837000    300.04594    843.68652    66938.404    15031.844    1.1817065 
  838000    300.63471    337.74515    67018.254    15061.341    1.1791168 
  839000    299.39515     388.2107    67249.601     14999.24    1.1820827 
  840000    298.92176   -457.54167    66857.305    14975.524    1.1805036 
  841000    301.52444     261.6428    66929.742    15105.914    1.1816494 
  842000    296.20809   -664.96175    67063.067    14839.574    1.1781524 
  843000    298.35326   -699.79521    67627.901    14947.043     1.176651 
  844000     303.8706   -837.46834    67421.083    15223.454    1.1820167 
  845000    298.75999   -184.96789    67127.913     14967.42    1.1781126 
  846000     301.4093    252.54651    67289.651    15100.146    1.1815796 
  847000    297.52854    1070.3884     67064.81    14905.726    1.1802798 
  848000    303.44661    18.708349     67228.14    15202.212    1.1813866 
  849000    298.55507    468.54526    67131.349    14957.154    1.1829648 
  850000    300.95791    -902.4806    67538.514    15077.532    1.1775182 
  851000    300.67563    82.323802    67346.274     15063.39    1.1742917 
  852000    301.22117    21.715559    67305.153    15090.721    1.1763548 
  853000    300.87451    180.30429    67192.631    15073.354    1.1793544 
  854000    300.81249   -859.47133    67373.818    15070.247    1.1750443 
  855000    300.18357    617.42662    67644.276    15038.739    1.1858504 
  856000    300.09519    384.84786    67450.475    15034.311    1.1802819 
  857000    299.65449   -1277.2326    67171.253    15012.233     1.177063 
  858000    301.37323    1009.8816    67111.204    15098.339    1.1776907 
  859000    296.49968    773.99989    67287.703    14854.181    1.1792662 
  860000    299.78708    912.27438    67391.529    15018.875    1.1838472 
  861000    299.65133    88.164205    67477.878    15012.075    1.1768776 
  862000      300.279    166.65088    67313.675     15043.52     1.172451 
  863000    300.73871    1554.6875    67446.739    15066.551    1.1790389 
  864000    299.27682    420.52623    67113.527    14993.312    1.1814323 
  865000    300.90212   -309.05764    67212.069    15074.737    1.1793483 
  866000    300.62035   -670.91473    67217.429    15060.621    1.1808115 
  867000    296.66998    51.226578    67219.922    14862.713    1.1819673 
  868000    305.31855    390.96264    67203.672    15295.993     1.177236 
  869000    300.36757    1064.1718     67223.14    15047.957    1.1836415 
  870000    303.69485    718.30842    67224.202    15214.649    1.1843501 
  871000    299.11506    788.60219    66903.093    14985.208    1.1877897 
  872000    301.34132   -193.46861    66968.263    15096.741    1.1891843 
  873000    302.07622    -777.5586     67426.84    15133.558    1.1782799 
  874000    297.20552    201.73539    67145.714    14889.543    1.1862823 
  875000    300.96067   -54.112061    67465.346     15077.67    1.1856391 
  876000    300.79821   -1037.0457    67578.009    15069.532    1.1837294 
  877000     298.5847    -13.92067    67223.361    14958.638     1.181803 
  878000    298.12679    935.18815    67767.141    14935.697    1.1750954 
  879000    300.40654   -80.861175     66850.11     15049.91    1.1792361 
  880000    301.83015    281.47867    67449.697     15121.23    1.1824753 
  881000    299.69841    391.87418    67352.163    15014.433    1.1834689 
  882000    300.81729    -105.2497    66735.012    15070.487    1.1775192 
  883000    302.18159   -1684.1206    67458.063    15138.837    1.1835187 
  884000    302.32399   -935.95077    66906.073    15145.971    1.1775982 
  885000    300.35806   -636.74654    67106.501    15047.481    1.1856284 
  886000     299.9832   -401.83099    67235.528    15028.701    1.1874167 
  887000    298.64788   -701.84701    67127.817    14961.803    1.1810795 
  888000    302.31753   -130.95105    67128.955    15145.647    1.1799841 
  889000     297.0673   -266.93943    67206.994    14882.618    1.1826826 
  890000      301.877    529.27385    67106.816    15123.577    1.1843088 
  891000    297.73468    168.40255    67492.666    14916.053    1.1800569 
  892000    297.80777   -167.81607    67105.783    14919.715    1.1793017 
  893000    300.67945   -335.81453    67451.781    15063.582    1.1840636 
  894000    300.63759     92.98612    67737.621    15061.484    1.1790378 
  895000    300.91952   -224.95547    67522.542    15075.609    1.1831675 
  896000    298.03938    656.15546     67386.39    14931.318    1.1817438 
  897000    301.48374   -864.92321    67219.444    15103.875    1.1816103 
  898000    298.77383    344.16134    67087.421    14968.113    1.1831241 
  899000    299.99501     1070.192    67008.402    15029.292    1.1881144 
  900000    300.06862   -13.308637    67482.509     15032.98    1.1817834 
Loop time of 2327.47 on 50 procs for 400000 steps with 16808 atoms

Performance: 14.849 ns/day, 1.616 hours/ns, 171.860 timesteps/s
99.6% CPU use with 50 MPI tasks x no OpenMP threads

MPI task timing breakdown:
Section |  min time  |  avg time  |  max time  |%varavg| %total
---------------------------------------------------------------
Pair    | 1310.8     | 1426.7     | 1543.4     | 118.3 | 61.30
Bond    | 347.86     | 376.6      | 414.2      |  86.2 | 16.18
Neigh   | 124.15     | 133.57     | 149.91     |  70.7 |  5.74
Comm    | 183.5      | 303.54     | 464.24     | 362.7 | 13.04
Output  | 0.023659   | 0.024038   | 0.029469   |   0.5 |  0.00
Modify  | 28.961     | 78.21      | 133.25     | 391.8 |  3.36
Other   |            | 8.795      |            |       |  0.38

Nlocal:    336.16 ave 360 max 316 min
Histogram: 2 4 6 10 7 8 3 6 2 2
Nghost:    8625.52 ave 8814 max 8445 min
Histogram: 4 3 6 5 8 7 6 6 1 4
Neighs:    198327 ave 217386 max 182781 min
Histogram: 2 4 6 9 12 5 6 1 4 1

Total # of neighbors = 9916361
Ave neighs/atom = 589.979
Ave special neighs/atom = 11.5602
Neighbor list builds = 17487
Dangerous builds = 0

write_data        C100H82N2O5S2_88new.data

Total wall time: 1:35:09
