LAMMPS data file via write_data, version 16 Mar 2018, timestep = 900000

 33616 atoms
 0 bonds
 0 angles
 0 dihedrals
 0 impropers
 17 atom types
 0 bond types
 0 angle types
 0 dihedral types
 0 improper types

0 200.008438 xlo xhi 
0 30.001266 ylo yhi  
-70  70 zlo zhi  

Masses

1 12.0112 # c5
2 12.0112 # cp
3 12.0112 # c2
4 12.0112 # c=2
5 12.0112 # c_0
6 32.064 # sc
7 15.9994 # oc
8 12.0112 # c1
9 14.0067 # nb
10 14.0067 # np
11 12.0112 # c3
12 15.9994 # o_1
13 15.9994 # oh
14 1.00797  # hc
15 1.00797 # hn
16 1.00797 # ho
17 2.0159

 Atoms # atomic

1	1	64.862641 	26.029376 	51.542504 
2	2	65.361712 	25.678077 	50.253416 
3	2	65.892582 	24.458463 	50.079342 
4	2	65.874469 	23.465019 	51.024701 
5	2	65.170497 	23.708131 	52.214169 
6	1	64.645196 	24.963058 	52.476126 
7	3	65.159431 	22.754266 	53.356621 
8	3	66.480462 	21.942182 	53.262826 
9	3	66.626302 	21.177899 	51.981242 
10	3	66.326925 	22.080102 	50.754709 
11	4	63.216079 	26.958774 	52.749368 
12	4	64.070263 	26.090373 	53.299339 
13	1	64.160422 	26.044914 	54.577722 
14	1	62.928854 	26.085603 	53.971793 
15	2	61.771688 	25.409606 	54.444019 
16	2	61.966321 	24.748567 	55.639055 
17	2	63.207857 	24.681333 	56.256931 
18	2	64.322387 	25.319082 	55.751024 
19	3	60.526517 	25.610914 	53.653918 
20	5	60.511847 	24.529145 	52.555574 
21	3	59.125475 	24.220327 	52.101339 
22	2	58.535104 	23.087053 	52.823431 
23	2	57.219119 	23.157826 	53.384757 
24	2	56.495823 	22.075195 	53.844779 
25	2	57.111410 	20.812561 	53.901056 
26	2	58.541148 	20.791528 	53.454384 
27	2	59.168640 	21.905326 	52.877538 
28	2	59.359351 	19.713159 	53.892111 
29	2	58.973799 	18.990318 	55.023932 
30	2	57.618457 	18.948975 	55.320104 
31	2	56.683979 	19.757204 	54.694012 
32	2	55.320473 	19.583199 	54.933982 
33	2	54.862275 	18.798507 	56.070882 
34	2	55.843428 	18.120562 	56.766450 
35	2	57.149513 	18.075466 	56.340497 
36	2	55.369913 	17.573339 	28.021976 
37	2	54.032747 	17.712271 	28.352135 
38	2	53.494926 	18.675171 	56.336453 
39	6	59.959370 	20.272488 	55.776632 
40	2	60.069198 	21.735675 	26.926562 
41	2	58.920527 	22.034514 	27.693124 
42	2	58.473853 	21.076963 	28.629227 
43	2	59.249280 	19.946377 	28.953748 
44	2	60.410096 	19.575893 	28.112446 
45	2	60.963004 	20.663778 	27.348676 
46	2	62.283062 	20.595537 	56.854834 
47	2	63.154103 	19.550398 	27.171254 
48	2	62.522042 	18.410601 	27.739159 
49	2	61.280361 	18.512871 	28.279252 
50	2	58.866823 	19.154962 	30.020844 
51	2	57.528668 	19.212822 	30.481402 
52	2	56.754907 	20.272284 	30.020144 
53	2	57.154684 	21.182194 	29.146239 
54	7	56.987814 	18.255421 	31.269567 
55	2	56.340797 	17.142870 	34.170049 
56	2	55.072406 	16.698656 	33.844992 
57	1	54.450598 	15.626461 	34.506879 
58	1	55.206622 	14.809442 	35.324878 
59	2	56.539102 	15.200117 	35.656564 
60	2	57.007260 	16.425396 	35.178036 
61	1	54.674382 	13.534697 	35.461805 
62	1	53.435270 	13.229877 	34.845323 
63	2	52.971831 	11.959371 	34.703623 
64	2	53.833677 	10.941038 	35.125712 
65	2	55.094055 	11.149002 	35.640951 
66	2	55.422177 	12.447067 	35.857022 
67	3	64.499296 	19.553238 	56.408991 
68	8	65.599957 	19.333929 	27.444896 
69	2	64.543933 	19.519028 	29.743627 
70	2	63.897854 	18.877701 	30.793392 
71	2	63.935340 	17.484367 	30.923963 
72	2	64.934122 	16.849866 	30.163444 
73	2	65.562142 	17.458987 	29.038097 
74	2	65.194512 	18.769738 	28.780187 
75	2	65.077689 	15.421928 	30.281830 
76	2	64.256648 	14.789898 	31.174471 
77	2	63.238906 	15.390421 	31.907644 
78	2	63.115100 	16.763364 	31.760303 
79	3	62.206320 	14.630203 	32.710342 
80	2	62.124923 	13.133013 	32.487646 
81	2	63.158952 	12.552828 	31.787866 
82	8	64.354404 	13.279557 	31.296541 
83	2	63.045281 	11.155283 	31.589997 
84	2	61.930606 	10.422729 	31.927246 
85	2	60.858924 	11.019115 	32.605929 
86	2	61.008517 	12.400124 	32.953656 
87	2	59.992926 	13.070693 	33.712687 
88	2	58.697174 	12.415492 	33.745450 
89	2	58.645694 	11.052225 	33.395792 
90	2	59.685657 	10.323147 	32.941314 
91	3	57.301634 	10.421648 	33.804432 
92	3	57.300441 	10.056903 	35.296538 
93	3	55.940373 	9.929703 	35.873725 
94	9	64.299513 	27.314947 	51.803321 
95	10	53.060393 	18.140262 	27.505003 
96	6	53.344330 	14.897974 	35.630758 
97	7	65.229507 	26.636899 	53.920149 
98	3	65.761041 	25.153111 	56.236904 
99	11	65.773394 	25.543969 	27.677359 
100	12	61.469690 	23.836695 	52.317080 
101	11	66.292283 	20.756395 	27.618357 
102	3	59.464254 	8.832874 	32.813180 
103	11	58.914072 	8.470316 	31.358663 
104	13	66.293948 	16.591601 	28.262629 
105	13	54.372787 	17.293529 	32.757064 
106	8	57.821708 	18.076578 	32.382474 
107	3	57.012083 	18.387322 	33.626789 
108	11	58.604367 	16.752658 	32.367302 
109	14	65.521119 	26.372230 	49.427591 
110	14	66.319067 	24.262781 	49.098987 
111	14	64.935299 	23.296515 	54.274459 
112	14	64.291627 	22.108461 	53.104631 
113	14	66.359364 	21.154413 	54.015284 
114	14	67.402164 	22.573602 	53.370831 
115	14	65.838825 	20.410399 	51.806451 
116	14	67.695981 	20.837216 	51.852066 
117	14	65.610226 	21.541904 	50.078165 
118	14	67.337754 	22.186911 	50.223930 
119	14	61.123233 	24.248716 	56.055127 
120	14	63.305000 	24.041544 	27.176929 
121	14	60.298487 	26.640250 	53.264382 
122	14	59.647824 	25.367986 	54.263420 
123	14	59.347224 	23.869911 	51.075074 
124	14	58.503251 	25.092046 	52.024953 
125	14	56.603487 	24.119467 	53.274407 
126	14	55.476182 	22.190583 	54.210007 
127	14	60.211766 	21.794818 	52.509037 
128	14	60.397121 	19.840412 	53.643582 
129	14	54.591469 	20.131390 	54.418502 
130	14	57.836951 	17.518780 	26.928344 
131	14	56.078553 	17.153267 	28.710769 
132	14	53.661010 	17.284139 	29.352348 
133	14	52.750119 	19.045190 	55.653713 
134	14	58.218098 	22.845850 	27.383324 
135	14	62.611014 	21.447807 	56.220402 
136	14	63.074257 	17.474256 	27.817430 
137	14	60.939545 	17.630703 	28.864589 
138	14	59.541858 	18.346054 	30.320586 
139	14	55.740072 	20.435922 	30.394626 
140	14	56.477455 	21.898312 	28.666557 
141	14	57.202135 	14.618416 	36.308095 
142	14	57.982275 	16.804873 	35.593454 
143	14	52.000936 	11.670285 	34.293448 
144	14	53.450341 	9.913806 	34.989781 
145	14	56.400428 	12.721911 	36.346294 
146	14	64.595734 	20.520778 	55.978430 
147	14	64.444489 	18.724673 	55.629806 
148	14	66.276489 	18.564573 	27.172841 
149	14	64.374919 	20.555077 	29.530925 
150	14	63.228282 	19.358869 	31.456572 
151	14	65.781953 	14.851091 	29.584653 
152	14	62.229335 	17.216182 	32.333887 
153	14	62.386211 	14.777904 	33.822560 
154	14	61.264897 	15.112575 	32.553497 
155	14	63.843720 	10.728928 	30.982185 
156	14	61.722499 	9.365061 	31.651876 
157	14	59.954426 	14.107759 	34.056977 
158	14	57.772423 	12.825398 	34.261417 
159	14	57.024139 	9.644354 	33.090443 
160	14	56.550223 	11.205624 	33.661472 
161	14	57.790540 	10.855632 	35.856603 
162	14	57.870709 	9.140307 	35.480343 
163	14	55.945930 	9.642928 	36.950285 
164	14	55.642338 	9.152708 	35.181996 
165	15	63.821625 	27.330583 	52.674257 
166	14	66.485684 	25.795709 	55.640142 
167	14	66.080899 	24.161204 	56.094501 
168	14	66.658293 	25.405959 	28.291570 
169	14	65.025854 	25.041754 	28.278970 
170	14	65.430724 	26.580034 	27.769014 
171	14	66.878604 	20.663001 	28.557944 
172	14	65.511911 	21.551080 	27.765510 
173	14	66.962274 	21.012453 	56.759899 
174	14	58.741247 	8.537323 	33.525178 
175	14	60.347397 	8.153545 	33.213629 
176	14	57.979096 	8.998779 	31.004992 
177	14	58.681448 	7.428762 	31.316670 
178	14	59.626392 	8.731509 	30.478129 
179	16	66.961294 	17.082989 	27.824125 
180	16	54.959760 	17.999433 	32.510236 
181	14	58.530547 	18.859933 	32.491252 
182	14	56.271696 	19.117835 	33.346879 
183	14	57.680802 	18.837990 	34.362883 
184	14	59.463007 	16.714961 	31.653796 
185	14	57.949401 	15.894373 	32.068419 
186	14	59.017682 	16.569207 	33.377094 
187	11	65.416676 	13.247388 	32.403265 
188	14	64.836717 	12.861212 	30.400463 
189	14	66.348046 	13.730956 	32.044997 
190	14	65.664366 	12.160995 	32.758735 
191	14	65.067209 	13.885818 	33.235862 
192	1	51.792895 	10.447952 	56.743346 
193	2	50.430342 	10.227132 	56.470969 
194	2	50.011861 	8.966417 	56.190125 
195	2	50.823567 	7.948762 	55.922221 
196	2	52.164642 	8.144401 	56.162539 
197	1	52.629544 	9.378431 	56.577777 
198	3	53.203712 	7.055592 	56.018800 
199	3	52.631821 	5.726946 	56.201714 
200	3	51.379363 	5.592949 	55.359869 
201	3	50.281690 	6.564836 	55.661078 
202	4	53.625459 	11.833873 	27.727775 
203	4	53.300298 	10.543708 	27.272482 
204	1	55.083258 	11.693240 	27.074845 
205	1	55.009813 	11.739568 	28.471951 
206	2	56.144200 	12.086656 	29.188656 
207	2	57.332670 	12.145807 	28.553391 
208	2	57.441401 	12.029493 	27.194584 
209	2	56.297345 	11.865600 	56.437607 
210	3	56.206326 	11.973146 	30.649367 
211	5	54.886812 	12.421947 	31.065693 
212	3	54.702948 	13.881301 	31.047077 
213	2	53.375399 	14.235336 	30.465139 
214	2	52.226458 	14.133626 	31.252929 
215	2	50.964584 	14.393554 	30.734744 
216	2	50.827712 	14.684125 	29.331859 
217	2	52.062031 	14.939205 	28.589087 
218	2	53.287755 	14.768931 	29.212880 
219	2	51.961872 	15.146403 	27.198183 
220	2	50.757512 	15.249275 	56.551010 
221	2	49.548580 	14.903347 	27.285663 
222	2	49.652998 	14.518643 	28.636675 
223	2	48.551514 	14.057953 	29.256094 
224	2	47.256644 	14.082464 	28.686730 
225	2	47.063337 	14.588839 	27.416999 
226	2	48.292346 	14.930130 	56.756015 
227	2	45.803742 	14.992578 	27.059175 
228	2	44.806720 	14.740770 	27.933000 
229	2	46.133961 	13.759053 	29.442637 
230	6	51.043942 	15.732164 	54.833343 
231	2	51.193756 	16.568266 	53.268943 
232	2	50.642796 	15.405920 	52.783947 
233	2	50.434909 	15.231690 	51.389727 
234	2	50.994798 	16.137652 	50.453321 
235	2	51.479518 	17.402433 	50.973652 
236	2	51.440093 	17.648517 	52.412404 
237	2	50.915909 	18.914052 	52.823365 
238	2	50.486051 	19.908807 	51.967174 
239	2	50.709756 	19.718140 	50.640243 
240	2	51.216308 	18.517575 	50.158938 
241	2	50.908575 	15.797622 	49.097373 
242	2	50.022855 	14.830163 	48.624846 
243	2	49.249013 	14.048972 	49.537428 
244	2	49.547852 	14.223757 	50.909066 
245	7	50.105762 	14.582576 	47.267134 
246	2	49.035525 	12.237334 	45.580670 
247	2	48.816397 	10.988422 	46.048750 
248	1	47.544519 	10.368767 	46.008558 
249	1	46.472593 	11.127308 	45.475105 
250	2	46.738453 	12.391482 	44.928664 
251	2	48.038949 	12.943840 	44.909179 
252	1	45.304048 	10.347306 	45.267917 
253	1	45.456275 	8.969601 	45.666077 
254	2	44.391282 	8.125596 	45.439269 
255	2	43.168218 	8.659114 	45.047624 
256	2	43.005323 	9.991976 	44.725066 
257	2	44.087423 	10.885317 	44.813591 
258	3	49.738247 	21.100543 	52.359320 
259	8	48.354733 	20.632296 	52.899838 
260	2	47.497467 	19.944881 	50.646033 
261	2	46.847916 	19.061731 	49.803943 
262	2	46.708671 	17.744454 	50.201944 
263	2	46.929539 	17.401090 	51.568607 
264	2	47.541458 	18.344530 	52.429856 
265	2	47.861043 	19.596120 	51.916596 
266	2	46.486088 	16.140808 	52.046037 
267	2	46.081240 	15.183914 	51.094850 
268	2	46.045683 	15.482842 	49.747631 
269	2	46.303125 	16.750023 	49.279276 
270	3	45.576690 	14.381794 	48.806941 
271	2	44.584856 	13.427866 	49.435582 
272	2	44.760114 	13.125915 	50.723342 
273	8	45.930469 	13.703883 	51.470462 
274	2	43.893285 	12.117236 	51.171035 
275	2	42.900873 	11.579372 	50.445469 
276	2	42.544408 	12.091688 	49.183005 
277	2	43.501133 	13.042173 	48.664346 
278	2	43.300790 	13.381339 	47.312372 
279	2	42.245333 	12.918114 	46.665516 
280	2	41.309632 	12.071447 	47.152332 
281	2	41.451228 	11.553548 	48.480821 
282	3	40.281138 	11.574355 	46.170643 
283	3	40.578983 	10.233565 	45.370488 
284	3	41.632774 	10.447797 	44.263470 
285	9	52.291248 	11.640741 	27.270553 
286	10	44.899838 	14.078526 	29.049481 
287	6	45.982519 	10.159942 	46.877861 
288	7	53.959701 	11.398081 	56.354880 
289	3	56.369217 	11.712346 	54.977062 
290	11	56.182063 	10.265407 	54.726082 
291	12	54.011942 	11.642192 	31.390884 
292	11	47.293258 	21.700658 	52.849673 
293	3	40.432970 	10.511411 	48.878613 
294	11	41.147024 	9.241343 	48.685435 
295	13	47.823985 	17.920015 	53.669273 
296	13	49.884019 	10.174396 	46.584601 
297	8	50.651040 	13.238850 	47.065734 
298	3	50.480688 	12.765977 	45.651997 
299	11	52.117805 	13.243615 	47.362288 
300	14	49.705159 	10.948356 	56.395707 
301	14	48.904007 	8.760094 	56.067203 
302	14	53.406779 	7.117443 	54.972090 
303	14	54.150874 	7.329518 	56.515705 
304	14	52.268204 	5.654079 	27.263656 
305	14	53.252338 	4.823217 	56.178735 
306	14	50.963364 	4.511729 	55.474058 
307	14	51.596842 	5.619148 	54.299340 
308	14	49.665126 	6.311845 	56.621893 
309	14	49.477323 	6.545538 	54.921605 
310	14	58.291815 	12.426779 	28.998256 
311	14	58.479486 	12.102977 	56.655070 
312	14	57.064243 	12.512379 	31.038026 
313	14	56.155246 	10.957550 	30.933196 
314	14	55.575327 	14.309286 	30.544764 
315	14	54.787420 	14.289647 	32.087279 
316	14	52.308785 	13.855814 	32.315664 
317	14	50.140873 	14.149567 	31.475764 
318	14	54.150775 	15.011154 	28.581110 
319	14	52.822467 	15.284915 	56.545236 
320	14	48.507524 	13.749042 	30.322267 
321	14	48.230573 	15.405001 	55.783681 
322	14	45.635386 	15.591353 	56.159823 
323	14	43.765767 	14.949486 	27.628066 
324	14	46.231190 	13.333864 	30.508088 
325	14	50.194034 	14.639544 	53.481241 
326	14	50.610776 	19.053839 	53.859279 
327	14	50.583710 	20.409245 	49.832037 
328	14	51.080355 	18.406725 	49.065757 
329	14	51.566441 	16.254203 	48.417602 
330	14	48.578445 	13.233237 	49.171945 
331	14	49.113573 	13.405280 	51.602702 
332	14	45.903307 	13.053474 	44.542376 
333	14	48.174062 	13.934237 	44.405483 
334	14	44.389360 	7.066842 	45.594840 
335	14	42.230545 	7.965525 	44.917425 
336	14	44.110758 	12.013487 	44.588960 
337	14	49.559128 	21.782074 	51.522742 
338	14	50.143627 	21.758965 	53.123263 
339	14	48.503674 	20.208301 	53.899015 
340	14	47.685477 	20.956910 	50.248875 
341	14	46.510569 	19.413866 	48.792655 
342	14	46.808488 	15.863569 	53.041413 
343	14	46.318446 	17.011095 	48.195403 
344	14	45.197079 	14.994622 	48.025854 
345	14	46.384825 	13.833793 	48.309489 
346	14	44.044329 	11.876181 	52.194720 
347	14	42.345656 	10.707868 	50.943078 
348	14	44.031556 	14.033012 	46.722815 
349	14	42.180467 	13.240548 	45.590166 
350	14	40.175907 	12.334028 	45.433081 
351	14	39.229321 	11.549084 	46.509718 
352	14	39.624008 	9.951990 	44.976587 
353	14	40.868881 	9.452199 	46.054691 
354	14	41.581157 	11.545192 	43.908430 
355	14	41.440501 	9.851890 	43.360041 
356	15	51.503594 	12.197519 	27.511767 
357	14	57.352725 	12.096993 	54.716929 
358	14	55.532761 	12.246677 	54.521329 
359	14	55.171641 	9.898491 	54.949855 
360	14	56.730481 	9.513824 	55.367294 
361	14	56.509069 	10.079973 	53.698584 
362	14	47.242995 	22.336376 	51.917569 
363	14	47.386670 	22.417633 	53.703647 
364	14	46.281631 	21.203973 	53.014134 
365	14	39.600293 	10.634798 	48.216084 
366	14	40.039577 	10.553174 	49.881059 
367	14	41.888109 	9.376721 	47.893391 
368	14	40.624757 	8.300123 	48.333070 
369	14	41.660355 	8.947124 	49.648415 
370	16	48.174465 	18.679550 	54.062437 
371	16	50.351700 	10.700416 	47.265913 
372	14	50.105361 	12.676474 	47.865219 
373	14	51.152563 	11.918756 	45.536871 
374	14	50.811080 	13.538750 	44.967654 
375	14	52.652563 	13.806503 	46.608611 
376	14	52.430910 	12.188901 	47.289716 
377	14	52.164223 	13.625429 	48.399279 
378	11	45.951841 	13.436201 	52.949840 
379	14	46.887826 	13.263217 	51.189190 
380	14	46.867355 	13.852272 	53.365520 
381	14	46.028102 	12.353294 	53.056783 
382	14	45.076795 	13.813042 	53.495942 
383	1	23.035037 	4.860495 	32.637230 
384	2	23.102663 	5.432562 	33.902452 
385	2	21.972746 	6.153967 	34.360190 
386	2	20.795256 	6.233924 	33.628320 
387	2	20.720256 	5.380054 	32.477863 
388	1	21.850051 	4.768951 	31.933975 
389	3	19.365824 	5.262000 	31.837311 
390	3	18.180706 	5.584749 	32.707796 
391	3	18.411268 	6.944784 	33.401077 
392	3	19.666350 	6.921992 	34.318764 
393	4	23.419536 	3.496215 	31.196568 
394	4	22.751800 	4.509629 	30.721143 
395	1	22.511392 	3.873890 	29.726920 
396	1	23.857389 	3.463268 	29.738989 
397	2	24.773214 	3.670405 	28.731273 
398	2	24.291604 	4.440676 	27.714540 
399	2	22.963014 	4.856245 	27.614387 
400	2	22.061722 	4.601664 	28.598093 
401	3	26.216735 	3.253803 	28.664174 
402	5	26.429663 	2.069729 	29.594548 
403	3	27.306365 	2.189104 	30.844840 
404	2	28.512895 	3.098349 	30.888149 
405	2	28.539696 	4.313638 	31.557356 
406	2	29.659748 	5.111201 	31.555495 
407	2	30.862873 	4.704955 	31.023418 
408	2	30.818110 	3.543500 	30.217245 
409	2	29.627845 	2.773036 	30.138474 
410	2	31.983529 	2.959640 	29.757498 
411	2	33.200489 	3.619343 	29.907393 
412	2	33.327783 	4.735166 	30.761337 
413	2	32.128249 	5.307892 	31.315010 
414	2	32.203970 	6.378956 	32.178667 
415	2	33.406985 	6.709229 	32.714287 
416	2	34.632521 	6.234649 	32.172271 
417	2	34.567067 	5.305228 	31.136256 
418	2	35.832551 	6.708750 	32.739485 
419	2	35.752908 	7.390559 	33.923974 
420	2	33.415424 	7.466525 	33.883422 
421	6	33.219142 	2.428382 	31.301419 
422	2	32.768736 	0.850937 	32.105524 
423	2	34.135815 	1.057298 	31.973652 
424	2	35.051592 	1.085659 	33.043529 
425	2	34.524343 	0.941728 	34.330956 
426	2	33.103990 	0.644335 	34.547275 
427	2	32.252714 	0.725105 	33.439887 
428	2	30.904813 	1.010184 	33.578552 
429	2	30.430564 	1.311977 	34.768090 
430	2	31.205966 	1.085334 	35.902458 
431	2	32.519032 	0.694808 	35.834639 
432	2	35.318372 	1.506906 	35.414608 
433	2	36.551838 	2.055161 	35.175923 
434	2	37.107270 	1.961817 	33.897426 
435	2	36.335299 	1.549251 	32.874049 
436	7	37.266521 	2.558004 	36.240894 
437	2	37.178048 	2.560056 	39.116631 
438	2	37.538537 	1.256207 	39.080936 
439	1	38.634844 	0.741279 	39.822259 
440	1	39.254213 	1.581196 	40.777203 
441	2	39.103412 	2.939317 	40.570162 
442	2	38.120370 	3.402758 	39.768058 
443	1	39.456541 	1.134895 	42.187330 
444	1	39.871111 	29.762578 	42.431986 
445	2	40.166404 	29.364369 	43.737711 
446	2	39.977352 	0.304542 	44.746770 
447	2	39.580092 	1.598955 	44.545200 
448	2	39.264321 	1.996487 	43.262168 
449	3	28.956269 	1.595097 	34.975399 
450	8	28.543508 	3.136300 	35.065682 
451	2	28.432701 	3.284274 	37.583617 
452	2	28.846476 	3.719283 	38.822429 
453	2	30.022874 	4.458734 	38.868605 
454	2	30.594772 	4.945568 	37.666083 
455	2	30.068125 	4.553387 	36.428355 
456	2	29.022638 	3.619912 	36.407315 
457	2	31.827243 	5.599123 	37.688991 
458	2	32.494355 	5.807442 	38.883967 
459	2	31.911091 	5.341276 	40.090577 
460	2	30.701870 	4.763802 	40.046831 
461	3	32.549397 	5.454960 	41.478862 
462	2	34.088733 	5.699446 	41.313513 
463	2	34.564801 	6.303613 	40.175597 
464	8	33.718399 	6.616979 	38.961927 
465	2	35.902549 	6.763580 	40.095987 
466	2	36.833642 	6.558126 	41.160785 
467	2	36.389757 	5.839728 	42.261428 
468	2	34.993860 	5.398813 	42.349854 
469	2	34.519439 	4.737521 	43.499393 
470	2	35.424816 	4.504594 	44.537270 
471	2	36.756360 	4.875835 	44.400413 
472	2	37.277031 	5.452855 	43.269637 
473	3	37.690231 	4.525393 	45.569887 
474	3	37.798313 	3.041134 	45.684320 
475	3	39.279436 	2.571186 	45.678315 
476	9	24.257951 	4.220917 	32.193491 
477	10	34.587664 	7.753500 	34.469384 
478	6	39.699437 	29.524435 	40.680726 
479	7	21.646768 	3.555428 	30.768791 
480	3	20.589774 	4.870682 	28.319070 
481	11	20.170071 	3.960854 	27.179966 
482	12	25.859453 	0.982109 	29.360812 
483	11	27.092132 	3.266988 	34.762237 
484	3	38.788059 	5.740875 	43.078924 
485	11	39.132399 	7.092723 	43.631406 
486	13	30.765073 	4.913964 	35.274632 
487	13	37.005798 	0.417735 	38.162824 
488	8	36.570976 	3.604710 	36.893433 
489	3	36.079277 	3.200950 	38.284396 
490	11	37.440495 	4.846243 	36.927984 
491	14	24.054234 	5.426852 	34.451897 
492	14	21.892452 	6.632840 	35.344185 
493	14	19.350772 	5.925289 	30.974940 
494	14	19.206087 	4.342497 	31.347898 
495	14	18.041586 	4.778334 	33.387908 
496	14	17.283791 	5.685216 	32.074471 
497	14	17.544410 	7.215842 	34.061492 
498	14	18.672664 	7.725544 	32.687821 
499	14	19.389790 	6.330889 	35.258056 
500	14	19.917849 	7.974046 	34.638123 
501	14	24.969403 	4.727173 	56.839704 
502	14	22.580525 	5.375585 	56.786517 
503	14	26.812566 	4.188231 	28.962978 
504	14	26.499214 	2.955298 	27.651106 
505	14	27.618712 	1.208460 	31.236205 
506	14	26.664528 	2.625707 	31.567425 
507	14	27.678962 	4.672197 	32.030059 
508	14	29.462391 	6.012760 	32.096946 
509	14	29.611329 	1.940259 	29.472381 
510	14	31.894885 	2.032836 	29.067951 
511	14	31.285438 	6.755432 	32.684242 
512	14	35.534933 	4.864954 	30.838946 
513	14	36.857080 	6.398863 	32.340928 
514	14	36.546721 	7.615417 	34.659852 
515	14	32.537276 	7.925212 	34.339244 
516	14	34.528081 	1.219558 	30.927763 
517	14	30.359885 	1.022051 	32.680514 
518	14	30.697834 	1.193266 	36.850656 
519	14	33.093965 	0.402135 	36.738897 
520	14	34.828390 	1.570859 	36.358987 
521	14	38.091650 	2.345988 	33.620913 
522	14	36.776594 	1.660844 	31.832824 
523	14	39.650197 	3.678509 	41.153471 
524	14	38.123370 	4.484894 	39.626807 
525	14	40.479728 	28.342822 	44.013674 
526	14	40.075154 	29.932320 	45.784102 
527	14	38.868219 	3.022213 	43.028778 
528	14	28.584608 	1.073086 	35.902383 
529	14	28.457651 	1.262734 	34.095294 
530	14	29.140248 	3.537869 	34.256811 
531	14	27.578990 	2.552388 	37.482844 
532	14	28.428899 	3.536117 	39.816865 
533	14	32.380883 	5.904142 	36.711034 
534	14	30.378865 	4.406649 	41.055840 
535	14	32.102837 	6.275463 	42.126095 
536	14	32.384484 	4.531608 	42.041017 
537	14	36.177965 	7.265360 	39.156885 
538	14	37.765846 	7.129361 	41.235888 
539	14	33.524251 	4.403583 	43.729640 
540	14	35.108512 	3.871878 	45.388719 
541	14	37.366627 	5.056353 	46.471729 
542	14	38.702915 	4.872673 	45.362641 
543	14	37.299615 	2.676678 	44.767191 
544	14	37.165636 	2.654181 	46.641616 
545	14	39.520854 	2.213259 	46.662459 
546	14	39.937678 	3.434972 	45.467564 
547	15	24.194461 	3.648019 	31.364656 
548	14	20.616209 	5.939702 	28.018819 
549	14	19.867349 	4.874563 	29.155995 
550	14	20.686681 	3.020133 	27.330173 
551	14	20.448718 	4.372734 	56.213458 
552	14	19.093152 	3.803149 	27.147945 
553	14	26.548983 	2.734270 	35.563158 
554	14	26.784300 	2.887153 	33.796061 
555	14	26.817659 	4.400046 	34.810627 
556	14	38.977530 	5.777918 	41.995039 
557	14	39.481280 	4.955191 	43.402488 
558	14	39.271090 	7.034018 	44.693330 
559	14	38.259256 	7.671154 	43.408959 
560	14	39.983205 	7.459507 	43.100039 
561	16	30.668153 	4.216220 	34.614904 
562	16	37.032827 	0.780651 	37.282473 
563	14	35.740990 	3.912377 	36.256565 
564	14	35.331529 	2.453985 	38.232520 
565	14	35.665084 	4.057647 	38.908146 
566	14	36.818324 	5.622394 	37.417862 
567	14	37.636863 	5.175010 	35.944331 
568	14	38.462816 	4.752255 	37.361604 
569	11	33.494752 	8.221022 	39.107795 
570	14	34.366440 	6.352921 	38.139636 
571	14	33.984845 	8.675332 	38.278102 
572	14	33.964915 	8.619190 	39.970371 
573	14	32.413970 	8.414879 	39.134073 
574	1	5.818626 	14.137033 	27.933368 
575	2	5.888045 	15.506077 	28.292978 
576	2	6.290457 	15.776532 	29.584760 
577	2	6.685996 	14.846178 	30.459985 
578	2	6.559838 	13.527707 	30.141392 
579	1	6.243652 	13.209909 	28.861916 
580	3	6.875419 	12.328537 	31.038558 
581	3	7.348443 	12.867204 	32.384588 
582	3	8.224698 	14.220758 	32.187204 
583	3	7.276986 	15.332324 	31.771590 
584	4	6.385415 	12.767504 	56.432670 
585	4	5.709063 	12.662328 	27.584691 
586	1	6.525543 	10.878220 	27.385834 
587	1	7.395672 	11.745391 	56.776084 
588	2	8.402484 	11.331718 	55.897498 
589	2	8.437241 	9.964513 	55.609028 
590	2	7.404240 	9.145429 	56.040548 
591	2	6.565534 	9.541170 	27.086351 
592	3	9.513565 	12.298101 	55.498831 
593	5	10.137488 	12.817916 	56.729475 
594	3	11.264313 	13.792142 	56.490720 
595	2	10.597105 	15.033240 	55.829107 
596	2	11.029288 	15.413494 	54.552942 
597	2	10.516243 	16.473449 	53.909762 
598	2	9.449527 	17.271615 	54.428403 
599	2	9.003582 	16.877056 	55.737958 
600	2	9.598638 	15.781239 	56.417325 
601	2	7.938659 	17.596490 	56.325361 
602	2	7.524009 	18.782994 	55.767894 
603	2	8.050377 	19.284666 	54.520352 
604	2	9.025112 	18.491279 	53.844232 
605	2	9.482712 	18.910392 	52.593305 
606	2	9.249640 	20.168765 	52.100900 
607	2	8.326676 	21.015020 	52.752421 
608	2	7.681786 	20.486271 	53.886755 
609	2	7.944251 	22.209677 	52.063590 
610	2	8.662773 	22.681192 	51.010498 
611	2	9.822359 	20.611687 	50.899772 
612	6	6.154704 	19.309004 	56.778786 
613	2	6.894393 	20.917609 	27.233342 
614	2	8.247024 	21.136578 	27.388565 
615	2	8.904844 	22.156308 	56.668130 
616	2	8.058366 	23.126572 	56.031862 
617	2	6.667466 	23.078128 	56.235534 
618	2	6.011774 	21.901134 	56.742578 
619	2	4.639467 	21.951292 	27.052841 
620	2	3.862895 	23.060836 	56.734581 
621	2	4.444996 	24.188865 	56.124225 
622	2	5.820283 	24.208225 	56.020614 
623	2	8.682334 	23.963591 	55.114531 
624	2	10.032125 	23.865307 	54.774035 
625	2	10.782105 	22.865126 	55.418089 
626	2	10.274976 	22.201209 	56.510422 
627	7	10.462129 	24.593132 	53.716630 
628	2	13.004879 	24.164038 	52.579134 
629	2	12.440404 	23.478495 	51.499303 
630	1	12.866432 	22.167458 	51.257748 
631	1	13.692588 	21.560985 	52.271163 
632	2	14.460807 	22.335048 	53.083391 
633	2	14.009507 	23.590110 	53.343312 
634	1	13.782330 	20.141415 	52.302614 
635	1	13.747033 	19.531162 	53.555004 
636	2	13.980145 	18.114134 	53.541577 
637	2	14.150962 	17.439703 	52.356222 
638	2	13.936772 	17.969303 	51.071336 
639	2	13.931319 	19.347813 	51.076983 
640	3	2.411806 	23.262038 	27.031036 
641	8	1.532490 	22.157948 	56.354125 
642	2	2.614123 	22.179529 	54.122163 
643	2	3.417801 	21.742538 	53.177836 
644	2	3.995836 	20.469684 	53.263194 
645	2	3.679042 	19.644446 	54.355551 
646	2	2.753366 	20.083355 	55.285872 
647	2	2.272421 	21.407829 	55.203719 
648	2	4.032434 	18.304918 	54.461905 
649	2	4.804792 	17.799531 	53.428038 
650	2	5.065808 	18.579807 	52.297896 
651	2	4.796302 	19.922035 	52.220843 
652	3	5.838523 	17.961790 	51.164774 
653	2	6.762936 	16.868480 	51.460745 
654	2	6.527331 	16.120098 	52.552061 
655	8	5.302101 	16.326219 	53.434861 
656	2	7.358630 	15.071208 	52.890224 
657	2	8.530840 	14.848509 	52.168064 
658	2	8.829156 	15.593856 	51.013548 
659	2	7.828407 	16.540595 	50.590241 
660	2	8.161974 	17.257794 	49.439953 
661	2	9.428399 	17.238979 	48.924491 
662	2	10.349073 	16.204595 	49.342489 
663	2	10.037149 	15.291147 	50.298602 
664	3	11.659917 	16.270008 	48.538809 
665	3	12.415889 	17.384485 	49.349158 
666	3	13.852722 	17.154506 	49.793392 
667	9	5.381984 	13.784178 	56.627643 
668	10	9.614840 	21.902224 	50.407631 
669	6	12.947343 	20.873756 	52.550479 
670	7	5.579218 	11.436845 	28.209962 
671	3	5.745917 	8.495145 	27.846495 
672	11	4.321744 	8.454290 	27.300354 
673	12	9.675424 	12.531468 	27.824087 
674	11	0.068256 	22.315096 	55.884553 
675	3	10.868967 	14.076017 	50.600426 
676	11	10.397846 	13.025098 	49.560248 
677	13	2.322781 	19.313478 	56.381045 
678	13	11.550660 	23.967643 	50.629522 
679	8	11.497211 	25.543363 	54.106735 
680	3	12.542149 	25.570038 	52.960739 
681	11	10.939714 	26.966745 	54.162996 
682	14	5.613856 	16.355761 	27.645806 
683	14	6.442090 	16.883947 	29.779032 
684	14	6.106088 	11.524774 	31.065287 
685	14	7.663456 	11.740856 	30.573945 
686	14	7.974423 	12.167551 	32.977877 
687	14	6.518400 	13.289211 	32.977751 
688	14	9.007138 	14.029321 	31.357599 
689	14	8.885665 	14.395670 	33.150206 
690	14	7.705177 	16.337280 	31.637830 
691	14	6.456304 	15.460111 	32.556903 
692	14	9.148525 	9.503913 	54.902584 
693	14	7.332978 	8.046078 	55.734226 
694	14	9.072149 	13.095515 	54.836265 
695	14	10.452176 	11.984907 	55.012407 
696	14	12.046078 	13.482606 	55.832596 
697	14	11.803230 	14.145665 	27.416841 
698	14	11.782565 	14.768832 	54.102027 
699	14	11.081412 	16.800771 	53.017808 
700	14	9.287978 	15.390108 	27.380271 
701	14	7.567234 	17.304403 	27.286768 
702	14	10.147803 	18.248925 	51.977045 
703	14	6.808587 	20.977223 	54.394157 
704	14	7.293133 	22.911250 	52.524149 
705	14	8.442281 	23.611380 	50.406373 
706	14	10.504826 	19.905081 	50.266231 
707	14	8.971396 	20.373456 	27.874053 
708	14	4.222460 	21.117196 	27.584972 
709	14	3.816247 	25.049933 	55.878157 
710	14	6.341182 	25.083662 	55.597545 
711	14	8.144122 	24.707898 	54.481526 
712	14	11.794122 	22.769497 	55.244902 
713	14	10.902077 	21.468681 	27.057676 
714	14	15.234831 	21.893920 	53.750888 
715	14	14.499180 	24.084400 	54.202649 
716	14	14.233589 	17.619698 	54.467396 
717	14	14.055386 	16.371767 	52.486788 
718	14	13.846222 	19.775262 	50.110847 
719	14	2.157663 	24.223967 	56.715046 
720	14	2.223114 	23.208412 	28.113435 
721	14	1.304257 	21.472727 	27.185890 
722	14	2.391859 	23.239426 	54.215108 
723	14	3.374126 	22.252026 	52.152024 
724	14	3.685360 	17.695908 	55.308121 
725	14	5.146298 	20.551948 	51.371010 
726	14	5.157602 	17.439019 	50.442068 
727	14	6.405982 	18.775184 	50.732387 
728	14	7.097387 	14.516491 	53.779091 
729	14	9.231471 	13.997118 	52.378528 
730	14	7.461602 	18.094347 	49.127375 
731	14	9.631954 	17.954216 	48.132430 
732	14	11.471401 	16.628955 	47.494625 
733	14	12.177175 	15.298986 	48.476461 
734	14	11.812891 	17.744662 	50.209099 
735	14	12.327624 	18.256804 	48.693958 
736	14	14.594692 	17.525923 	48.991747 
737	14	14.187043 	16.126712 	49.876324 
738	15	4.803020 	12.981601 	56.768196 