LAMMPS (16 Mar 2018)
#

# variables available on command line

variable        T index 293.15      # K
variable        P index 5      # MPa
variable	    fe index 1.0302
variable        Patm equal ${P}/0.101325       # atm
variable        Patm equal 5/0.101325       

# global model settings

echo               both
units              real
dimension          3
atom_style         atomic
boundary           p p p

read_data         C100H82N2O5S2.data
  orthogonal box = (0 0 -70) to (200.008 30.0013 70)
  5 by 1 by 1 MPI processor grid
  reading atoms ...
  33616 atoms
pair_style         lj/cut   12.5
pair_modify        shift yes mix arithmetic

# pair_coeff

pair_coeff 	1	1	0.105	3.851
pair_coeff 	2	2	0.105	3.851
pair_coeff 	3	3	0.105	3.851
pair_coeff 	4	4	0.105	3.851
pair_coeff 	5	5	0.105	3.851
pair_coeff 	6	6	0.274	4.035
pair_coeff 	7	7	0.06	3.5
pair_coeff 	8	8	0.105	3.851
pair_coeff 	9	9	0.069	3.66
pair_coeff 	10	10	0.069	3.66
pair_coeff 	11	11	0.105	3.851
pair_coeff 	12	12	0.06	3.5
pair_coeff 	13	13	0.06	3.5
pair_coeff 	14	14    0.044 2.886
pair_coeff 	15	15    0.044 2.886
pair_coeff 	16	16    0.044 2.886
pair_coeff 	17	17    0.072896 2.958

# region

region            soall  block  EDGE EDGE EDGE EDGE -22  22 units box side in

# define groups

group		      ggcmc type 17
0 atoms in group ggcmc
group             wall  type < 17
33616 atoms in group wall

neighbor          2.0 bin
neigh_modify      every 1 delay 1 check yes  exclude group wall wall

#MD settings

variable 	      type17 atom "type==17"
group 	            type17 dynamic ggcmc var type17
dynamic group type17 defined
variable          nH2 equal count(type17)
compute           mtem type17 temp/com
compute_modify    mtem dynamic/dof yes

fix               1  wall nve/noforce  # move linear 0 0 0

# gcmc
fix               2 ggcmc gcmc 100 100 100 17 29494  ${T} 1 0.5 region soall pressure ${Patm} fugacity_coeff ${fe} group ggcmc
fix               2 ggcmc gcmc 100 100 100 17 29494  293.15 1 0.5 region soall pressure ${Patm} fugacity_coeff ${fe} group ggcmc
fix               2 ggcmc gcmc 100 100 100 17 29494  293.15 1 0.5 region soall pressure 49.3461633358006 fugacity_coeff ${fe} group ggcmc
fix               2 ggcmc gcmc 100 100 100 17 29494  293.15 1 0.5 region soall pressure 49.3461633358006 fugacity_coeff 1.0302 group ggcmc

fix               3 type17 nvt temp ${T}  ${T}  100
fix               3 type17 nvt temp 293.15  ${T}  100
fix               3 type17 nvt temp 293.15  293.15  100
fix_modify        3 temp mtem
WARNING: Temperature for fix modify is not for group all (../fix_nh.cpp:1404)

thermo            1000
thermo_style      custom step c_mtem pe ke atoms v_nH2

run               1000000
Neighbor list info ...
  update every 1 steps, delay 1 steps, check yes
  max neighbors/atom: 2000, page size: 100000
  master list distance cutoff = 14.5
  ghost atom cutoff = 14.5
  binsize = 7.25, bins = 28 5 20
  1 neighbor lists, perpetual/occasional/extra = 1 0 0
  (1) pair lj/cut, perpetual
      attributes: half, newton on
      pair build: half/bin/atomonly/newton
      stencil: half/bin/3d/newton
      bin: standard
Per MPI rank memory allocation (min/avg/max) = 6.104 | 6.118 | 6.133 Mbytes
Step c_mtem PotEng KinEng Atoms v_nH2 
       0            0            0            0    33616            0 
    1000    295.67562   -13.664644    222.35646    33869          253 
    2000    281.53525   -22.617901    266.91715    33934          318 
    3000    297.53882   -28.429799    347.82246    34008          392 
    4000    287.61391   -34.413742    329.69002    34001          385 
    5000    290.83736   -37.823216    327.76006    33995          379 
    6000    287.32831   -36.440997    354.74051    34031          415 
    7000    273.31714   -47.536543    337.25231    34030          414 
    8000    295.46674   -54.748301    363.05887    34029          413 
    9000    310.41156   -57.500889    367.96371    34013          397 
   10000    297.75824   -42.108847    350.66878    34012          396 
   11000    302.62733   -52.749554    366.26191    34022          406 
   12000    287.76847   -49.247768     364.7294    34041          425 
   13000      284.828   -48.694522    340.29685    34017          401 
   14000    301.08778   -52.952251    373.80502    34033          417 
   15000    327.54537   -45.941114    412.15155    34038          422 
   16000    262.28336   -52.241381    323.81556    34031          415 
   17000    293.34148   -49.126394    348.11398    34015          399 
   18000    296.61536   -48.727694    354.26721    34016          400 
   19000    281.64807   -53.847171    347.62193    34031          415 
   20000    295.92515   -46.458773    355.73261    34019          403 
   21000      284.987   -55.490173    354.91162    34034          418 
   22000    287.87731   -55.619486    355.04737    34028          412 
   23000    310.09602   -58.073528    389.27228    34038          422 
   24000     292.2005   -54.049122    385.89528    34059          443 
   25000    293.55826   -56.382996    364.02943    34032          416 
   26000    286.91651   -51.111333    340.42713    34015          399 
   27000    282.47431   -49.005311    321.29625    33998          382 
   28000     321.4318   -56.871694    376.60234    34010          394 
   29000    295.46066   -65.630675    364.36801    34030          414 
   30000    299.26364   -64.305461    357.93088    34018          402 
   31000    272.82668   -63.257148    349.71841    34047          431 
   32000    300.74958   -68.266131    385.28402    34046          430 
   33000    295.47536   -63.898915    391.55207    34060          444 
   34000    305.74307   -59.189822    362.45882    34012          396 
   35000    304.87404   -54.796972    379.33725    34030          414 
   36000    290.75769   -62.506118    364.94557    34036          420 
   37000    300.97249   -51.630034    372.24663    34029          413 
   38000    289.55819   -60.851883    379.34561    34056          440 
   39000    304.25049   -56.792918    392.07751    34049          433 
   40000     295.9842   -62.735937    387.71851    34056          440 
   41000    301.16719   -58.338644    388.09591    34049          433 
   42000     286.9058   -61.306265    353.35477    34029          413 
   43000    289.25019   -52.449372     354.6905    34028          412 
   44000    292.62751   -57.337336    358.90441    34028          412 
   45000    305.20286   -61.394194    403.92111    34060          444 
   46000     294.7246   -62.759682    371.11088    34038          422 
   47000    299.74042   -66.728556    382.61372    34045          429 
   48000    286.71434   -64.817449    386.83941    34069          453 
   49000    311.65927   -61.664163    419.69009    34068          452 
   50000    297.06305   -59.096775    362.72624    34026          410 
   51000     272.3994   -66.337248    319.45395    34009          393 
   52000    304.61198   -57.735297    371.76216    34026          410 
   53000    298.54391   -57.539345     359.3977    34020          404 
   54000    309.84664   -52.645324     389.1374    34038          422 
   55000    276.44116   -56.214831    334.13986    34022          406 
   56000    296.40164   -60.725378    365.37141    34030          414 
   57000    314.91061   -65.075702    430.14179    34075          459 
   58000    286.92155   -67.289869    375.14418    34055          439 
   59000    296.46253   -65.520874     396.8505    34066          450 
   60000    299.93589   -60.302716    382.71259    34044          428 
   61000    289.21249   -55.304289     353.1919    34026          410 
   62000    294.82517   -57.054441    389.61045    34060          444 
   63000     291.0177   -59.487922    371.45487    34044          428 
   64000    287.18234   -57.008311    351.13633    34027          411 
   65000    289.97099   -57.311415    352.48196    34024          408 
   66000    297.42431   -57.145598    336.02006    33993          377 
   67000    279.88763   -57.325188    332.35914    34015          399 
   68000     291.1967   -61.652881    365.36888    34037          421 
   69000    306.67122   -57.928533    375.87085    34028          412 
   70000    292.92186   -60.100167    368.36343    34038          422 
   71000    307.75954   -64.341739    411.93314    34066          450 
   72000      291.064   -53.975634    367.12352    34040          424 
   73000    295.27061   -61.031237    351.70173    34016          400 
   74000    295.85129   -50.007065    347.29788    34010          394 
   75000    316.27504   -54.873162    374.39135    34014          398 
   76000    286.54872    -57.33893    351.40501    34025          409 
   77000    292.06136   -60.202724    394.27695    34069          453 
   78000     288.6801   -70.044026    385.50698    34064          448 
   79000    301.47822   -65.021977    379.53381    34039          423 
   80000    297.24443   -61.867803    392.43337    34059          443 
   81000    289.05896   -61.538291    358.10479    34031          415 
   82000    330.40003   -59.804358    409.50424    34032          416 
   83000    288.33572   -54.781997    337.01558    34009          393 
   84000    301.89208   -57.439944    411.16435    34073          457 
   85000    291.64961    -59.77627    360.72244    34031          415 
   86000    301.33311   -57.547307      357.059    34013          397 
   87000    290.30457   -57.786296    341.50633    34011          395 
   88000    291.58304   -53.587207    340.97477    34008          392 
   89000    300.45363    -59.24636    376.17553    34036          420 
   90000    299.69962   -65.194844    385.06627    34046          430 
   91000    290.68685   -61.876834    383.87567    34059          443 
   92000    302.35644   -60.461235    375.03783    34032          416 
   93000    290.89986   -56.983184    351.32327    34022          406 
   94000    284.89731   -54.061115    360.52935    34040          424 
   95000     290.2281   -54.956589    350.32983    34021          405 
   96000    277.98848   -57.262153    351.59025    34041          425 
   97000    304.10311   -48.993056    358.47316    34011          395 
   98000    279.16917   -56.052992    326.61538    34009          393 
   99000    294.59004   -59.555148    349.60585    34015          399 
  100000    299.65599   -48.440202    351.87692    34009          393 
  101000    288.83071   -54.213268    353.90118    34028          412 
  102000    290.97918   -49.402335     356.7089    34027          411 
  103000    291.80922    -54.50955    391.66643    34064          448 
  104000     298.8193   -51.313866     375.5012    34038          422 
  105000    299.39899   -50.041276    362.37588    34020          404 
  106000    290.68961   -47.043853       356.85    34028          412 
  107000    307.76512   -47.697714    384.67779    34036          420 
  108000    277.02644   -43.376191    296.59374    33976          360 
  109000    296.80826   -44.517608    351.79263    34014          398 
  110000    298.24162    -46.48558    342.20118    34001          385 
  111000    308.67614   -48.313971    351.03932    33998          382 
  112000    260.38804   -52.114906     300.4259    34003          387 
  113000    290.36013   -48.962938    342.08656    34012          396 
  114000    299.53651   -57.524042    360.04187    34019          403 
  115000    282.56859   -52.145003    328.30641    34005          389 
  116000    285.47089    -53.48667    345.78076    34023          407 
  117000    282.98475   -54.429311    371.86222    34056          440 
  118000    288.27183   -55.995719    352.60106    34027          411 
  119000    276.56023    -45.09074      317.442    34002          386 
  120000    301.32981   -65.378548    392.04162    34052          436 
  121000    296.98017   -57.547991    362.39023    34026          410 
  122000    282.06916   -63.814091    350.44929    34033          417 
  123000    268.88397   -61.504944    370.57156    34079          463 
  124000     288.8596   -59.544644    370.48711    34046          430 
  125000    293.96677   -61.747255    385.81108    34057          441 
  126000    283.03656    -58.34061    365.39179    34048          432 
  127000    298.48188   -58.254781    385.94864    34050          434 
  128000    280.61589   -61.985463    365.38375    34053          437 
  129000    301.85016   -61.667966    361.94538    34018          402 
  130000     286.2412   -52.563571    365.43497    34044          428 
  131000    290.40194   -53.307888    372.35252    34044          428 
  132000    312.03999   -49.533681    395.60983    34042          426 
  133000    295.54744   -54.621428    368.08998    34034          418 
  134000    321.42559    -56.97306    392.52316    34025          409 
  135000    279.28592    -59.00616    348.68303    34035          419 
  136000    294.32819   -65.915212    384.26819    34054          438 
  137000    280.00344   -59.644725    358.26992    34046          430 
  138000    283.15524   -60.097031    364.77116    34049          433 
  139000    294.54601   -53.440056    374.40609    34041          425 
  140000    288.56111   -55.738477    359.19919    34034          418 
  141000     292.4197   -61.343271     357.3351    34026          410 
  142000    276.98513   -61.077869     372.8567    34068          452 
  143000    301.65525   -63.170464    387.24393    34047          431 
  144000     283.5671   -50.600762    336.60414    34015          399 
  145000    303.81478   -49.550697    384.81344    34041          425 
  146000     297.4699   -55.394686    375.50425    34039          423 
  147000    282.57929   -55.847207    354.97986    34038          422 
  148000    293.84011    -57.94675    381.65053    34052          436 
  149000    302.16174   -62.261575    395.47418    34054          438 
  150000    307.98302   -58.782032    389.78173    34039          423 
  151000    278.92416   -56.513332    343.11737    34029          413 
  152000    283.54921   -61.889013    366.12525    34050          434 
  153000    289.30601   -56.698239    404.25179    34085          469 
  154000    283.22354   -61.966603    367.09243    34051          435 
  155000    276.45924   -61.857825    347.12608    34037          421 
  156000     295.8261   -71.169436    391.78509    34061          445 
  157000    288.24929   -60.400528    358.70079    34034          418 
  158000    271.40835   -57.512092    319.97301    34012          396 
  159000    282.66732     -49.2172    303.50352    33977          361 
  160000    295.15067   -61.986532    371.31213    34038          422 
  161000    299.13808    -44.52744    371.38238    34032          416 
  162000    298.15582   -55.400844    379.07976    34043          427 
  163000    277.70671   -53.514797    333.82277    34019          403 
  164000    284.86667   -53.836233     342.0406    34019          403 
  165000    281.77716   -49.445015    364.00494    34050          434 
  166000    302.46719   -51.475478    384.01344    34042          426 
  167000    289.75096   -52.803968    359.91445    34032          416 
  168000    309.68788   -51.598191    368.85035    34015          399 
  169000    295.89358   -56.102727    361.93909    34027          411 
  170000    291.29378   -60.340825    366.07632    34038          422 
  171000    308.58628   -62.292243    413.62989    34066          450 
  172000    312.49234   -64.946642    399.08279    34044          428 
  173000    270.73337   -58.162081    328.65202    34023          407 
  174000    292.30961   -54.450761     367.8814    34038          422 
  175000    305.85726   -58.387869     367.9564    34019          403 
  176000    302.79307   -63.588691     393.5052    34052          436 
  177000     290.3089   -72.147247    373.64692    34048          432 
  178000    301.05353    -64.91268    358.25242    34015          399 
  179000    289.86809   -64.302355    377.06192    34051          435 
  180000    310.46887   -64.119435    400.19013    34048          432 
  181000    286.79622   -61.889413    360.84205    34038          422 
  182000    312.30705   -55.225926    383.77815    34028          412 
  183000    286.74979   -53.743786    359.26688    34037          421 
  184000    290.23906    -50.41477    361.89688    34034          418 
  185000    307.77841   -48.201815    375.71712    34022          406 
  186000    293.85529   -54.038123    336.32428    33999          383 
  187000    294.04132   -63.923812    390.11359    34062          446 
  188000    293.94485   -50.227934    343.61282    34009          393 
  189000    307.82666   -54.588882    396.27454    34048          432 
  190000     284.6324   -64.294297    331.94486    34007          391 
  191000    294.29824   -60.373076     387.6888    34058          442 
  192000    286.63133   -57.579654      364.064    34042          426 
  193000    310.19232   -66.094533    413.57361    34064          448 
  194000    288.42268   -54.258376    350.05692    34024          408 
  195000    303.14165   -60.633842    377.01083    34034          418 
  196000    298.97518   -54.137224    356.64725    34016          400 
  197000    289.75371   -50.184278    343.41904    34014          398 
  198000    284.56947   -58.272377     325.7129    34000          384 
  199000    294.79138   -57.216272    367.61787    34034          418 
  200000    306.69182   -60.969688    395.23961    34048          432 
  201000    284.48138   -55.393936    338.81437    34014          398 
  202000    301.67593   -53.573078    383.72143    34043          427 
  203000    307.60353   -54.581034    365.35999    34015          399 
  204000    309.38837   -53.699749    358.30629    34005          389 
  205000    297.60987   -44.503671    353.60238    34015          399 
  206000    294.89344   -55.362616    378.98556    34047          431 
  207000    283.75451   -52.699892    330.79511    34008          392 
  208000    290.81448   -52.024713    362.23126    34032          416 
  209000    311.37994   -53.928136    341.24665    33984          368 
  210000     286.6151   -53.915205    318.84253    33990          374 
  211000    283.15983   -61.814787    339.68177    34019          403 
  212000    307.44925   -56.861994    395.09227    34048          432 
  213000    304.90667   -51.116941     378.2878    34032          416 
  214000    279.43667   -53.726081     340.1541    34025          409 
  215000    297.92781   -61.095312    387.17782    34051          435 
  216000    305.59238   -68.083158    408.48698    34065          449 
  217000    292.23734   -60.756391    355.55726    34023          407 
  218000        263.6   -59.252323    354.20363    34065          449 
  219000     286.2054   -65.848177    374.14508    34055          439 
  220000    291.44426   -65.393148    369.75159    34042          426 
  221000    279.24128    -78.26574    353.32849    34040          424 
  222000     280.9479   -69.552025    380.21939    34068          452 
  223000    273.67782   -69.210468    356.61906    34054          438 
  224000    291.79209   -63.720751    351.50038    34021          405 
  225000    303.15804   -58.823322    379.72809    34036          420 
  226000    289.53062   -68.037706    336.07647    34006          390 
  227000    293.96874   -68.390408    379.81495    34050          434 
  228000    309.53463   -59.649606    372.41951    34020          404 
  229000    283.33782   -67.082078    365.26145    34049          433 
  230000    280.50616   -60.483286    338.26581    34020          404 
  231000    291.49265   -64.771599    358.43442    34029          413 
  232000    271.77742   -58.878084    350.62541    34049          433 
  233000    282.21746    -62.28371     369.0036    34055          439 
  234000    305.48929   -68.558908    380.15003    34034          418 
  235000     297.2139   -61.523705    377.71809    34043          427 
  236000    284.72725   -59.822898    350.21008    34029          413 
  237000    293.15505   -62.073525    339.88226    34004          388 
  238000    315.13997    -57.21956    366.70669    34005          389 
  239000    293.03431   -57.180763    344.32721    34010          394 
  240000    311.92732   -53.404852    364.81196    34009          393 
  241000    285.71283   -55.592025    332.29101    34007          391 
  242000    315.45039   -62.606048    394.28757    34035          419 
  243000    300.49806   -64.022423    402.00305    34065          449 
  244000      295.306   -62.390158    366.56368    34033          417 
  245000    287.40299   -62.850505    349.75864    34025          409 
  246000    292.34531   -53.017551    352.49294    34020          404 
  247000    286.36797   -53.783357    344.03335    34019          403 
  248000     276.8531   -58.966592    351.83706    34043          427 
  249000    274.69889   -52.353179    336.27968    34027          411 
  250000    300.67394     -52.2812    379.91443    34040          424 
  251000    285.00416   -64.037605    380.00747    34064          448 
  252000    285.74717    -64.92587    370.47136    34050          434 
  253000    282.36941   -66.684938    337.80675    34018          402 
  254000    274.64752   -53.023387    314.74532    34001          385 
  255000    303.88287   -45.131462    349.76702    34002          386 
  256000    276.22811   -48.609216    328.04047    34014          398 
  257000    281.21576   -48.239441    311.23865    33988          372 
  258000    283.47107   -53.904193    345.94133    34026          410 
  259000    293.51614    -60.10843       363.39    34032          416 
  260000    288.48482   -60.130094    376.71042    34054          438 
  261000    292.83579    -55.76899     385.6817    34058          442 
  262000    310.22617   -52.668693    385.29055    34033          417 
  263000     281.5657   -57.585691    336.38822    34017          401 
  264000     275.9161   -56.564049    364.85259    34059          443 
  265000    306.36109   -59.959627    377.48124    34030          414 
  266000    319.16898   -57.111812    407.91184    34044          428 
  267000    302.47813   -55.735048    357.81694    34012          396 
  268000    310.79165   -55.398812    368.54428    34014          398 
  269000    272.37239   -51.929841    313.05457    34001          385 
  270000    293.19084    -49.73899     347.7338    34014          398 
  271000    295.44921   -57.672027    329.92596    33991          375 
  272000    287.08077   -59.125814    363.38141    34039          423 
  273000    311.91066   -59.786786    419.05315    34067          451 
  274000    312.64242    -62.18611    371.45287    34015          399 
  275000     292.0858   -51.818972     365.5763    34036          420 
  276000    294.39426   -59.752098    383.96848    34053          437 
  277000    304.66791   -61.571224    373.45368    34028          412 
  278000    297.52937    -55.84474    355.80659    34018          402 
  279000    283.15026   -55.679406     366.6001    34051          435 
  280000    306.36377    -59.98715     404.9227    34060          444 
  281000    299.26923   -58.020874    368.80886    34030          414 
  282000    288.67162   -55.719388    343.19762    34015          399 
  283000    291.83677   -47.997213    378.57914    34050          434 
  284000    268.06601   -53.406021    316.53452    34012          396 
  285000    283.65603   -53.053561    357.56788    34039          423 
  286000    289.96553   -57.912975    314.74943    33981          365 
  287000    287.71209   -43.829536    340.87405    34013          397 
  288000    286.67589   -56.974547    349.17495    34024          408 
  289000    296.28346   -54.943676    372.04598    34038          422 
  290000    322.68412   -52.537085    396.24516    34028          412 
  291000     298.6568   -61.427694    356.65232    34017          401 
  292000     277.3919   -54.369834     332.4793    34019          403 
  293000    311.93583   -57.342365    374.13088    34019          403 
  294000    293.29416   -58.243251    364.65608    34033          417 
  295000     286.2024   -60.092713    378.08017    34059          443 
  296000    287.20585    -61.76008    356.25382    34033          417 
  297000    297.12525   -60.040813    344.40933    34005          389 
  298000    304.14033   -56.660867     359.1581    34013          397 
  299000    288.10762   -57.687193    346.10534    34020          404 
  300000    308.35838   -60.463855    361.05568    34009          393 
  301000    297.86332   -59.113921    375.67388    34040          424 
  302000    290.91173   -53.599127     361.7552    34034          418 
  303000    289.94669   -62.060801    362.19969    34034          418 
  304000     287.9781   -68.090303    368.70369    34046          430 
  305000    290.60546   -64.019679    364.99976    34038          422 
  306000    285.24427   -60.530569    348.42838    34025          409 
  307000    290.35213   -53.167501     335.4509    34002          386 
  308000    307.75513    -59.42165    357.96327    34007          391 
  309000    320.54585   -58.342941    371.69666    34005          389 
  310000    300.63977   -61.154926    378.24104    34038          422 
  311000    264.41557   -58.670295    324.21186    34028          412 
  312000    297.33241   -61.460688    393.78221    34061          445 
  313000    278.66348   -63.293725    356.39466    34046          430 
  314000    279.36462   -69.667375    361.53413    34050          434 
  315000     297.2684   -66.467944    362.63887    34025          409 
  316000    291.61788   -67.371016    373.35136    34046          430 
  317000    277.13058   -62.299309    348.43434    34037          421 
  318000    282.73137   -54.620699    383.25373    34071          455 
  319000     312.7898   -60.522219    419.42972    34066          450 
  320000    288.05597    -61.29755    408.77166    34091          475 
  321000    288.60429   -55.133639    366.75718    34043          427 
  322000    309.97795   -59.758855    418.39495    34069          453 
  323000    303.29471    -54.95983    365.35244    34020          404 
  324000     300.0155   -57.640897    374.69122    34035          419 
  325000    307.80476   -52.355413    377.48709    34027          411 
  326000    280.40614   -54.220197    331.17366    34013          397 
  327000    273.06998   -48.091056    339.55156    34034          418 
  328000    292.22887    -51.92957    392.20586    34067          451 
  329000    290.89409   -59.125365    363.43233    34035          419 
  330000    279.84471   -59.843909    336.09438    34019          403 
  331000    303.81825   -57.214359    390.87682    34048          432 
  332000    264.31812   -48.656022     328.7577    34032          416 
  333000    293.06659   -45.388144    380.45905    34052          436 
  334000    289.30647   -51.084934    370.24272    34046          430 
  335000    289.70949   -51.054569    367.26207    34042          426 
  336000    307.54433    -57.46009    390.06986    34042          426 
  337000    284.98602     -63.5414    352.87143    34032          416 
  338000    308.04638   -52.634159    375.05442    34025          409 
  339000    280.07885   -52.653158    352.30851    34037          421 
  340000    294.61886   -64.540128    385.22239    34054          438 
  341000    294.08036   -62.097644    352.54713    34019          403 
  342000    286.72796   -64.613433    346.36527    34021          405 
  343000    301.62438   -66.920689    404.10124    34066          450 
  344000    290.43909   -66.360076    388.28125    34064          448 
  345000    299.57055    -71.74174    402.71781    34067          451 
  346000     311.4729   -63.763209    416.35693    34065          449 
  347000    291.05881   -70.173623    378.49953    34051          435 
  348000     299.0249   -51.800362    365.64284    34026          410 
  349000    300.51708   -60.310898    373.12336    34033          417 
  350000    262.58519   -64.487028    321.44036    34027          411 
  351000    293.06752   -64.704089    370.85429    34041          425 
  352000    270.54194   -53.764872    310.70541    34002          386 
  353000    301.50404   -62.417174    378.94979    34034          418 
  354000     306.1517   -59.400473     377.7398    34030          414 
  355000    277.14612   -60.154098    348.71528    34039          423 
  356000    270.65247   -54.479661    340.52882    34036          420 
  357000    313.18442   -58.462628    380.78241    34024          408 
  358000    304.90582   -65.616759    375.81087    34030          414 
  359000    296.46259   -61.025655     365.0078    34027          411 
  360000    288.96833   -64.642665    362.07755    34036          420 
  361000    298.50794   -64.344334    365.27673    34027          411 
  362000     294.0875   -59.011129    375.54885    34045          429 
  363000    293.19552   -62.264033    405.86188    34081          465 
  364000    270.33516   -60.225939     364.5216    34069          453 
  365000    283.34225   -60.315509    346.87107    34027          411 
  366000    297.79707   -48.696522     354.8434    34016          400 
  367000    302.85227   -50.057078    346.99184    34001          385 
  368000    291.22173   -50.474647    340.99162    34008          392 
  369000    291.18196   -54.192323    345.19691    34014          398 
  370000    321.97841    -55.96526    385.91903    34019          403 
  371000    295.45847    -57.73594    367.84696    34034          418 
  372000    269.18628   -54.055536    321.30185    34017          401 
  373000    290.45101   -61.659383     358.6219    34030          414 
  374000    280.60294   -49.681765    328.13287    34008          392 
  375000    313.16506   -58.229785    383.86327    34028          412 
  376000    300.39447   -57.650481    356.50867    34015          399 
  377000    292.08388    -58.78467    373.00523    34044          428 
  378000     311.3065   -67.118004    403.95911    34050          434 
  379000    285.63007   -71.391104    375.50274    34057          441 
  380000    296.56052   -64.644833    377.82203    34044          428 
  381000    301.89495   -64.046562    394.29505    34055          439 
  382000    306.27029   -66.875149    386.50499    34039          423 
  383000    313.34967   -65.123901    429.72701    34077          461 
  384000    284.31943   -59.844689    368.58381    34050          434 
  385000    285.73881   -56.193003     355.6333    34031          415 
  386000    308.85124   -51.028679    381.55029    34030          414 
  387000    284.32317   -59.291737    356.24609    34036          420 
  388000    272.46666   -59.566087    345.60772    34042          426 
  389000    299.57079   -62.001492    347.11816    34005          389 
  390000    289.37283   -69.836763    369.24605    34045          429 
  391000     299.6193   -69.225927    366.81734    34026          410 
  392000      296.129   -61.245782    364.88727    34027          411 
  393000    310.62411    -67.26034    388.24373    34036          420 
  394000    295.26845   -63.796358    368.95499    34036          420 
  395000    278.72294   -66.241028    355.03377    34044          428 
  396000    306.55291    -68.38242    393.12161    34047          431 
  397000    294.88216   -75.071439    393.93319    34065          449 
  398000      281.156   -70.225925    399.93815    34092          476 
  399000    286.81277   -63.840615    376.77415    34056          440 
  400000    278.36506    -60.33055    362.21283    34052          436 
  401000    307.79436   -57.162296    376.53448    34027          411 
  402000    285.02052   -58.189389    361.26654    34042          426 
  403000    292.00403   -47.586798    371.19572    34042          426 
  404000    277.44699    -55.17638    363.84839    34055          439 
  405000    308.26962   -46.711631    372.61705    34022          406 
  406000    295.09197   -55.959883    340.75711    34004          388 
  407000    304.71717    -63.23629    358.74199    34008          392 
  408000    285.20302   -61.879049     348.9604    34026          410 
  409000    311.83194   -61.272528    380.36119    34026          410 
  410000    293.54562   -58.976547    381.96388    34053          437 
  411000     288.9558   -60.231583    364.65726    34039          423 
  412000    306.85224    -50.87971    386.82367    34038          422 
  413000    298.21162    -60.14379    376.55795    34040          424 
  414000    284.43432    -65.39816    360.50337    34042          426 
  415000    299.05635   -50.539864    349.98844    34009          393 
  416000    293.48418   -45.315143    333.58126    33998          382 
  417000    297.91947   -48.533147    381.43694    34046          430 
  418000    277.90961   -49.770091    330.31804    34015          399 
  419000    295.63425   -57.311706    356.17332    34019          403 
  420000    297.45063    -48.90651    368.38026    34030          414 
  421000    295.48451    -45.61436    338.03094    34000          384 
  422000     287.2694   -54.146998     340.0052    34012          396 
  423000    301.52297   -49.556998    348.81634    34004          388 
  424000    292.19161    -54.17177      371.226    34043          427 
  425000     278.9027   -61.837686    360.81643    34050          434 
  426000    301.72191   -66.859657    403.52653    34064          448 
  427000    306.99823   -65.505665    440.76932    34098          482 
  428000    279.38583   -69.758717    384.56775    34076          460 
  429000    310.44674   -62.079096    410.16127    34060          444 
  430000    297.52343   -59.524747    368.15206    34029          413 
  431000    297.09124   -55.897609    363.49278    34026          410 
  432000    296.93963   -62.322735    366.65287    34031          415 
  433000    287.78688   -60.254514    351.04165    34025          409 
  434000    306.68682   -66.993774    349.48934    33999          383 
  435000    276.61879   -61.485699    349.61348    34040          424 
  436000    307.92111   -61.319899     384.6485    34036          420 
  437000    300.28087   -53.302457    382.73635    34044          428 
  438000     285.2213   -60.254836    363.05221    34043          427 
  439000    282.82456   -56.169418     362.5128    34046          430 
  440000    292.04556   -56.775439    367.17326    34038          422 
  441000    296.03868   -62.709387    376.14177    34040          424 
  442000    277.38452   -62.593586     355.4717    34045          429 
  443000    287.54759   -55.394092    352.75342    34027          411 
  444000     306.3194   -55.693542    362.60064    34013          397 
  445000    300.16381   -60.797681    361.75746    34021          405 
  446000    292.45187   -61.828891    355.37509    34024          408 
  447000    281.19351   -54.109607    345.32149    34026          410 
  448000    275.09366    -60.32637    348.03716    34041          425 
  449000    290.07921   -68.316531    390.22215    34068          452 
  450000    294.62915   -68.390268    381.98698    34051          435 
  451000    280.74807   -66.142391    357.59971    34044          428 
  452000    296.73701   -69.019648    403.85781    34073          457 
  453000    274.76645   -65.364364    350.87104    34045          429 
  454000    303.86673   -62.929734    396.76475    34055          439 
  455000    307.04457   -77.145423    429.20447    34085          469 
  456000    275.66942   -65.665431    365.43295    34059          443 
  457000    298.08967   -69.342719    386.82933    34052          436 
  458000    276.94718   -65.661838    367.39311    34061          445 
  459000     315.2199   -65.203923    450.00696    34095          479 
  460000     291.2588   -66.798605    359.60769    34031          415 
  461000    271.79816    -66.11469    341.53046    34038          422 
  462000    297.74415   -71.270184    362.76363    34024          408 
  463000    307.81555   -60.432521    367.29808    34017          401 
  464000    282.58801   -51.491645    328.99266    34007          391 
  465000    290.39135   -47.918446    347.27342    34018          402 
  466000    293.76033   -55.630622    379.66783    34050          434 
  467000    264.03105   -51.374035    336.44996    34043          427 
  468000    275.64326   -58.327458    355.09694    34049          433 
  469000    278.33906   -53.575638      355.505    34043          427 
  470000      281.148   -67.242516    383.25318    34074          458 
  471000    260.62249   -67.986981    337.35893    34051          435 
  472000    283.63068   -57.930985    361.95197    34043          427 
  473000    300.39583   -61.360072     412.8149    34078          462 
  474000    288.73397   -49.558895    327.25124    33997          381 
  475000     313.3967   -59.798628    391.01665    34034          418 
  476000    289.39276   -62.250636    372.92837    34049          433 
  477000    286.03867   -65.862922    356.87515    34035          419 
  478000     297.0773   -57.499528    384.22959    34050          434 
  479000    280.28728   -58.551524    358.03962    34044          428 
  480000    311.01877   -47.596136    348.80501    33992          376 
  481000      310.805   -46.261387    319.96664    33962          346 
  482000    273.80412   -51.524091    311.10979    33997          381 
  483000    302.72012   -47.905824    354.72761    34010          394 
  484000    313.92808    -64.77057    371.63707    34013          397 
  485000    270.04561   -59.085292    328.64885    34024          408 
  486000    293.81467   -53.747849     331.3699    33994          378 
  487000    288.37062   -62.059996    328.59505    33999          383 
  488000    284.94825   -57.238598    358.55884    34039          423 
  489000    303.32321   -62.232499     394.8366    34053          437 
  490000    301.08857   -61.102957    377.20852    34037          421 
  491000    282.41926   -50.828109    330.40075    34008          392 
  492000    287.44195   -54.378781    347.32105    34019          403 
  493000    293.05965   -57.571907    375.08932    34046          430 
  494000    294.24342   -59.377867    352.35471    34017          401 
  495000    289.55765   -56.724787    351.30287    34022          406 
  496000    310.11628   -49.076698    375.89692    34021          405 
  497000    302.52861   -56.592991    361.07348    34016          400 
  498000     274.6279   -50.741714    334.15073    34025          409 
  499000    303.48433   -43.731131    369.65733    34024          408 
  500000    296.87043   -49.895759    336.83902    33996          380 
  501000    284.00232   -46.793566    314.96763    33988          372 
  502000     293.0069   -49.068575    338.54003    34004          388 
  503000    281.66469    -48.25025    353.71097    34036          420 
  504000    292.84719   -48.812165    368.11404    34038          422 
  505000    305.45645   -49.775176    368.23941    34021          405 
  506000    283.53985   -55.842612    340.46452    34019          403 
  507000    310.12543   -68.019046    380.60037    34028          412 
  508000    302.78727   -66.294559    360.24931    34016          400 
  509000    303.78266   -63.448379    364.70464    34019          403 
  510000    298.78576   -61.241426    401.48688    34066          450 
  511000    272.50894   -68.118484    356.00812    34053          437 
  512000    286.57364   -59.562354    369.33122    34049          433 
  513000    314.74059   -62.585226    393.23746    34036          420 
  514000    285.71503   -59.159581    357.21299    34036          420 
  515000    279.17434   -59.393795    323.06939    34005          389 
  516000    275.41285    -56.53881    323.54121    34011          395 
  517000    300.63298   -53.068954    354.91531    34012          396 
  518000     301.9849    -48.49532    363.06661    34018          402 
  519000    302.57376   -52.390296    367.34739    34024          408 
  520000    317.33947   -59.666731    407.04778    34047          431 
  521000    287.64291   -55.657666     364.5043    34040          424 
  522000    285.32536   -51.733169    361.50594    34041          425 
  523000    292.10826   -47.353873    380.53571    34054          438 
  524000    281.99499    -51.71728    341.71706    34023          407 
  525000    286.35166    -51.22008    344.98683    34020          404 
  526000      286.393   -50.801928    356.16646    34034          418 
  527000    300.17386   -48.014033    367.63605    34027          411 
  528000    277.22491   -51.057036    319.78848    34002          386 
  529000    318.95355   -50.419059    383.88077    34020          404 
  530000     280.4903   -55.231933    337.53227    34020          404 
  531000    277.49771   -66.235106    375.99315    34070          454 
  532000    317.68033    -66.90323    393.42599    34032          416 
  533000    299.23418   -52.732325    377.52452    34040          424 
  534000    317.30045   -54.745644    382.56777    34021          405 
  535000     282.7893   -65.811303    325.23028    34002          386 
  536000     276.6069   -67.323854    348.78704    34038          422 
  537000    298.12396   -57.171829    365.44825    34027          411 
  538000    295.38368    -59.57441    355.92032    34021          405 
  539000    282.49014     -58.2152    330.35482    34009          393 
  540000    296.01554   -50.375089     340.1439    34002          386 
  541000    309.40454   -57.344718     365.7977    34013          397 
  542000    280.19214   -57.840602    333.97857    34016          400 
  543000     285.8195   -50.333928    350.80287    34027          411 
  544000    305.84774   -51.556861    379.74637    34033          417 
  545000    286.12333   -47.230917    341.95064    34015          399 
  546000    300.07624   -57.744837    360.62855    34019          403 
  547000    308.74434   -59.999639    373.56081    34020          404 
  548000    283.80563   -53.355104      381.697    34067          451 
  549000    283.02099   -73.511125     390.7023    34080          464 
  550000    307.95252   -59.502456    371.54102    34021          405 
  551000    291.05899   -60.971898    343.22741    34012          396 
  552000    278.07689   -58.704042    325.15414    34008          392 
  553000    312.00347   -61.137082      393.109    34039          423 
  554000    289.71871   -56.577368    354.81304    34026          410 
  555000    309.79573   -61.969351     363.2238    34010          394 
  556000    291.84103   -67.279154    357.32852    34026          410 
  557000    285.90172   -55.979047     328.1776    34000          384 
  558000    299.00952   -59.436965    381.94009    34045          429 
  559000    303.87392   -70.469018    379.29542    34035          419 
  560000    290.25854   -70.219024    377.76947    34052          436 
  561000    298.75638   -57.160036    372.91777    34035          419 
  562000    279.44484   -68.117174    371.85207    34063          447 
  563000    306.08026   -70.217387    401.80222    34054          438 
  564000    290.31643   -62.719595    394.84203    34072          456 
  565000    294.70483   -75.330589    408.00649    34081          465 
  566000    288.30785   -62.923539    371.66245    34049          433 
  567000    308.17685   -73.412617    403.47719    34055          439 
  568000    306.28601   -72.444543    367.60947    34016          400 
  569000    281.65676   -56.750072    330.14828    34010          394 
  570000    268.01932   -68.932906    343.07221    34045          429 
  571000    278.34382   -59.001222    364.52243    34056          440 
  572000    287.16375   -65.340202    383.87238    34064          448 
  573000    316.18982   -68.347916    400.42999    34041          425 
  574000    294.32354   -69.472003    390.12468    34059          443 
  575000    296.98756   -66.301563    351.29915    34013          397 
  576000      302.126   -64.797083    398.37918    34059          443 
  577000    302.38236   -62.484358    385.94833    34044          428 
  578000    274.70031     -61.6463    342.66402    34035          419 
  579000    281.06036   -57.747306    344.59205    34028          412 
  580000    289.36303   -61.125477    360.18593    34034          418 
  581000     283.5873   -63.811466    363.06574    34044          428 
  582000    303.37796   -63.687669    425.13869    34086          470 
  583000    290.86427   -68.139953    354.11292    34025          409 
  584000     286.3538    -59.59132    340.78317    34016          400 
  585000    305.09193   -51.648422    354.32747    34006          390 
  586000    297.44403   -60.962491    356.73196    34019          403 
  587000    297.84606   -48.027643    341.07488    34000          384 
  588000    284.12179   -60.155083     337.5342    34014          398 
  589000    295.53947   -53.906061    345.53327    34009          393 
  590000     309.7026   -46.376426    380.67455    34029          413 
  591000    303.70727   -47.809627    376.32829    34032          416 
  592000    283.11619   -49.907017    341.43038    34021          405 
  593000    283.34519   -38.250006    329.75174    34007          391 
  594000    313.93589   -49.378175     363.7322    34005          389 
  595000    303.69333   -49.985649    373.32988    34028          412 
  596000    298.00832   -53.357147    353.68372    34015          399 
  597000    307.60179    -50.19712    396.31903    34048          432 
  598000    293.85155    -53.40126    392.66032    34065          449 
  599000     297.5607   -51.524929    393.89442    34060          444 
  600000    286.30957   -58.617168    360.53046    34038          422 
  601000    296.43941   -49.457917    361.94021    34026          410 
  602000    295.29275   -53.036865    366.70131    34032          416 
  603000    297.44542   -57.944299     348.0464    34009          393 
  604000    303.76837   -60.607037    417.36824    34076          460 
  605000    285.51122    -64.88921    409.07338    34096          480 
  606000    317.46831    -58.55849    419.36369    34060          444 
  607000    311.01081   -54.816861    381.11427    34027          411 
  608000    289.15059   -61.898604    358.86914    34032          416 
  609000    279.24698   -58.239366     333.3815    34017          401 
  610000    290.60517   -60.264699    368.45932    34041          425 
  611000    312.58112   -53.131899    387.16677    34032          416 
  612000    264.99364   -47.250985    319.96668    34022          406 
  613000     287.0384   -50.096354    356.31248    34033          417 
  614000    291.94568   -63.107257    378.38157    34051          435 
  615000    302.81467   -54.405031    377.65356    34034          418 
  616000    288.07774   -62.213544    365.23841    34041          425 
  617000    296.52506   -52.943332    375.43747    34040          424 
  618000    287.85126   -51.261644    332.86146    34004          388 
  619000    283.47158   -51.164897    330.62476    34005          389 
  620000    296.98616   -48.259636    354.21278    34015          399 
  621000    306.35342   -49.982249    369.43182    34020          404 
  622000     297.6727   -55.870013      367.971    34031          415 
  623000    300.07599   -57.645438    362.26556    34021          405 
  624000    292.37318   -50.960591    351.47287    34019          403 
  625000    313.79554    -52.63911    342.68701    33983          367 
  626000      293.909   -51.965414    333.88773    33998          382 
  627000     309.7083   -56.907948     361.2383    34008          392 
  628000    304.58393   -60.177839    374.70129    34029          413 
  629000    304.51503   -54.222232    371.60604    34023          407 
  630000    283.70975   -57.401316    365.91369    34049          433 
  631000    290.05649   -55.328189    342.60407    34013          397 
  632000    292.95101   -51.194764    369.51693    34040          424 
  633000    273.93971   -56.586626     344.9397    34039          423 
  634000    301.54896   -61.052944     370.4173    34029          413 
  635000     276.1641   -58.548791    345.45763    34036          420 
  636000     307.5651   -64.277746    398.17661    34050          434 
  637000    284.87539   -59.052266    358.83675    34039          423 
  638000    288.14621   -58.909156    379.38387    34058          442 
  639000    283.33385   -59.051967    343.76092    34022          406 
  640000    302.83379   -53.514638    371.21762    34028          412 
  641000    304.77194   -54.367645    369.13692    34022          406 
  642000    287.98619   -61.253427    352.62325    34024          408 
  643000    308.11612   -57.937468    383.73563    34034          418 
  644000    295.07024   -57.404752    378.65891    34047          431 
  645000    281.69814   -54.873294     360.0526    34045          429 
  646000    285.12976   -55.388816    325.68379    34000          384 
  647000    303.08478   -62.320797    350.53224    34004          388 
  648000    293.90838   -66.310812     338.8597    34001          385 
  649000     298.7065    -59.62766    377.75284    34041          425 
  650000    279.00428   -63.196781    352.94995    34041          425 
  651000    303.02639   -61.833488     375.8469    34033          417 
  652000    300.35077    -64.86645     375.7254    34036          420 
  653000    319.70703   -56.904632    402.96802    34039          423 
  654000    286.72448   -62.758096    354.07751    34031          415 
  655000    280.09877   -69.601623    354.02535    34040          424 
  656000    319.08804   -64.285181    403.95155    34041          425 
  657000    287.80524   -62.678488    375.14682    34053          437 
  658000    291.71956   -62.529786    362.31061    34033          417 
  659000    301.79593   -61.556327    361.07975    34017          401 
  660000    304.71569   -59.706654    356.78512    34009          393 
  661000    275.63642   -58.960867    304.41782    33986          370 
  662000    302.81526   -57.178675    388.96517    34047          431 
  663000    303.69624   -54.163412    352.35979    34006          390 
  664000    272.67668    -51.18533    329.42496    34021          405 
  665000    295.42049   -56.068173    362.53936    34027          411 
  666000    305.81773   -53.611322    368.98066    34021          405 
  667000    286.10449   -58.568806    340.66655    34015          399 
  668000    301.02947   -58.689026    375.75157    34035          419 
  669000    301.40944    -57.60223    385.52249    34045          429 
  670000     279.9509   -59.267275    371.02512    34061          445 
  671000     274.1139    -57.73688    331.53633    34021          405 
  672000    290.86109   -62.007453    356.40609    34026          410 
  673000    300.46503   -60.757897    355.76055    34014          398 
  674000    300.89939   -61.886963    367.23329    34025          409 
  675000    269.97133   -61.761121    321.31232    34015          399 
  676000     276.6621   -62.512354    340.68468    34028          412 
  677000    282.54861   -64.239184    372.74255    34058          442 
  678000    314.58627   -72.715287    385.06483    34026          410 
  679000    293.54307   -61.543385    385.52386    34057          441 
  680000     305.2094   -75.486634    411.72141    34068          452 
  681000     313.1444   -66.935281    400.64537    34046          430 
  682000    286.93804   -68.023529     379.7198    34060          444 
  683000    291.92802   -68.856052    372.81101    34044          428 
  684000    295.76733    -67.79448    396.18656    34066          450 
  685000    300.91662   -72.819436    421.81379    34087          471 
  686000     302.9853   -62.801676     399.4425    34059          443 
  687000    287.45913   -62.067626    351.75499    34025          409 
  688000    288.37323   -54.762523    343.87796    34016          400 
  689000    274.63801   -56.356893    334.32051    34025          409 
  690000    305.04516   -60.749377    386.49774    34041          425 
  691000    298.38241   -58.750131    379.05411    34042          426 
  692000    288.85465   -56.457717    348.78896    34022          406 
  693000    305.48914   -56.023019    371.74948    34025          409 
  694000     295.3571    -59.16905    369.87079    34035          419 
  695000    291.52441    -59.20447    349.40904    34019          403 
  696000    311.12911   -58.601683    401.35315    34049          433 
  697000    292.25769   -62.170537    347.25299    34014          398 
  698000    292.20638   -66.551754    386.92506    34060          444 
  699000    311.38514   -53.966546    395.48249    34043          427 
  700000    299.58442   -58.318205    373.54074    34035          419 
  701000    290.23584   -64.178856    375.02388    34050          434 
  702000    293.37367    -59.82986    352.78665    34020          404 
  703000    280.17149   -54.252503    334.18033    34016          400 
  704000    288.12574   -64.791025    380.74428    34060          444 
  705000    295.80984    -65.38785    369.21047    34035          419 
  706000    301.10269   -65.963198    384.36805    34045          429 
  707000    277.48881   -63.482743     343.2022    34031          415 
  708000    303.52888   -56.836677    371.54705    34027          411 
  709000    294.55564    -64.25606    361.40386    34028          412 
  710000    319.75864   -60.435331    396.56739    34031          415 
  711000    303.56606   -55.555678    369.00438    34023          407 
  712000    290.83223   -52.890021    372.20313    34046          430 
  713000    288.31711   -58.393513    363.15525    34039          423 
  714000    291.62813   -53.985569    392.55942    34068          452 
  715000    263.60195   -53.660717    319.16167    34021          405 
  716000    288.40832   -51.669657    352.88575    34025          409 
  717000    289.84779   -55.354789    363.42043    34037          421 
  718000    297.82583   -44.789245    346.64867    34007          391 
  719000    291.62288    -50.14931    362.22231    34032          416 
  720000    288.38338   -52.159168    362.18842    34038          422 
  721000    304.38921     -50.4061    376.16452    34030          414 
  722000    311.86087   -55.321108    377.81631    34023          407 
  723000    270.81859   -46.185045    329.96635    34024          408 
  724000    288.46297   -46.031141    343.49964    34016          400 
  725000    287.84889   -52.867162    353.40464    34028          412 
  726000    286.37993   -44.844547    331.99663    34003          387 
  727000    279.95046   -53.526563    348.91165    34035          419 
  728000      295.731   -53.248804    370.05428    34035          419 
  729000    297.28474   -49.112468    374.83773    34039          423 
  730000    279.40604   -55.075517    354.39591    34041          425 
  731000    303.38272   -53.296761     414.2198    34075          459 
  732000    289.76088   -56.025263    356.26857    34028          412 
  733000    294.97388   -67.648902    394.86653    34065          449 
  734000    276.86197   -59.099871    359.56089    34052          436 
  735000    293.03981   -62.897338    347.20085    34014          398 
  736000    301.83813   -57.445451    379.79206    34038          422 
  737000    272.39505   -63.774907    343.05487    34039          423 
  738000    288.83308   -56.295408    355.07753    34029          413 
  739000    284.74292   -54.421801    362.29125    34043          427 
  740000    284.88023   -58.945187    369.75747    34051          435 
  741000    286.23138   -56.758318    373.20321    34054          438 
  742000    290.09393   -62.735802    383.44504    34060          444 
  743000    296.01718   -65.511685    389.58949    34058          442 
  744000    288.18465   -63.849598    355.28965    34030          414 
  745000    282.43836   -64.417763    351.97439    34034          418 
  746000    282.79397   -59.328135    359.56705    34043          427 
  747000    282.52714   -65.122632    369.15742    34053          437 
  748000    276.12231   -59.159298    360.54656    34053          437 
  749000    281.02283   -64.486111     352.2641    34036          420 
  750000    286.06847   -60.985339    348.33959    34024          408 
  751000    294.46298   -57.356475    364.40067    34031          415 
  752000    288.72631   -45.638323    351.22662    34025          409 
  753000    285.55038   -55.314198    340.31697    34016          400 
  754000    298.29201   -48.623772    344.99791    34004          388 
  755000     275.3135   -46.459767    329.76943    34018          402 
  756000     298.3596     -55.9083    355.91364    34017          401 
  757000    292.43843   -47.595175    324.84308    33988          372 
  758000    291.83407   -43.360367    326.00345    33991          375 
  759000    268.36864   -47.566896    324.39341    34021          405 
  760000    289.09213   -55.242004    333.74655    34004          388 
  761000    294.25198   -54.866937    362.17125    34027          411 
  762000    305.48401   -47.655507    372.61349    34025          409 
  763000    278.69416   -53.395547    335.63227    34020          404 
  764000    315.81911   -58.224936    395.62364    34037          421 
  765000    304.40325   -57.614192      360.567    34014          398 
  766000    296.26046   -57.428195    373.83426    34039          423 
  767000    312.92724   -62.817061    372.27108    34016          400 
  768000    294.69916   -60.336931    377.21337    34046          430 
  769000    279.72577   -63.200295    365.36056    34054          438 
  770000    303.83196   -62.561776    390.56786    34047          431 
  771000    290.31806   -62.364019    349.21478    34020          404 
  772000    317.37887   -54.577166    368.08211    34006          390 
  773000    301.24285   -59.689351    375.99988    34034          418 
  774000    286.98838   -58.500862    368.66327    34047          431 
  775000    283.78841   -64.140767    331.16606    34008          392 
  776000    292.32792     -64.6763    380.23968    34052          436 
  777000    276.93518   -51.390742    350.60872    34041          425 
  778000    291.65893   -58.801258    357.78976    34028          412 
  779000    303.26292   -59.189269    397.60703    34056          440 
  780000    282.44013   -61.314013     349.3648    34030          414 
  781000    304.18267   -60.759204    365.86793    34020          404 
  782000    324.56934   -55.052294    390.21699    34020          404 
  783000    305.45902   -51.945203    364.41878    34017          401 
  784000    271.12931   -53.311443    315.85786    34007          391 
  785000    301.69566   -53.295687    355.05592    34011          395 
  786000    289.60974   -59.629775    373.64153    34049          433 
  787000    306.65423   -57.233392    377.73423    34030          414 
  788000    301.08279   -65.445777    401.56634    34064          448 
  789000    286.82312   -59.820515     354.5807    34031          415 
  790000    279.44225   -48.891296    340.25357    34023          407 
  791000    310.52553   -57.110662    409.58116    34058          442 
  792000    281.51914   -58.492021    343.07026    34024          408 
  793000    296.36945    -51.94354    358.53224    34022          406 
  794000    307.12109   -52.014506      374.377    34025          409 
  795000    299.97827   -54.665306    353.59068    34012          396 
  796000    290.64794   -55.074818    354.10375    34025          409 
  797000    291.21409   -58.460334    357.95673    34029          413 
  798000     296.2748   -49.847595    356.67369    34019          403 
  799000    294.07596   -54.348314     348.4118    34014          398 
  800000    268.53255   -51.278366    322.81216    34020          404 
  801000    292.54956   -61.572196    355.37313    34022          406 
  802000    278.87436   -52.766628     340.9597    34027          411 
  803000    301.77595   -59.061271     360.6755    34017          401 
  804000    287.12203      -45.559     334.6503    34007          391 
  805000    293.72658   -48.852297    337.12355    34002          386 
  806000    283.03713   -60.679614    351.37391    34032          416 
  807000    290.97733   -55.648003    366.58586    34038          422 
  808000    302.86773   -56.832379    390.54424    34049          433 
  809000    301.33716    -67.84007    407.87993    34071          455 
  810000     287.8986   -57.587111    359.15644    34035          419 
  811000    275.75249   -49.181564    374.73676    34072          456 
  812000    286.98713   -47.929449    371.70872    34051          435 
  813000    297.89837   -56.448094    372.40964    34035          419 
  814000    256.53423    -49.64828    299.90508    34009          393 
  815000    283.43737   -50.820116    337.73162    34016          400 
  816000    275.91776   -52.614877    334.37065    34023          407 
  817000    315.21934   -55.139145    389.79221    34031          415 
  818000    304.65052   -46.564119    377.33565    34032          416 
  819000    313.20968   -46.849774    379.42224    34023          407 
  820000    304.13391   -48.451384    350.84499    34003          387 
  821000    278.75678    -48.54774    315.59318    33996          380 
  822000    297.12675    -52.90665    381.37285    34047          431 
  823000    296.92937   -58.218228    368.70672    34032          416 
  824000    292.59499   -58.202562    389.06301    34063          447 
  825000    303.15656   -59.034572    387.82407    34043          427 
  826000     301.5646   -57.301657    358.39904    34015          399 
  827000    269.70601   -52.156091    349.82643    34049          433 
  828000    304.43222   -61.322412    396.60045    34054          438 
  829000    289.14458   -59.633757    352.82152    34026          410 
  830000    298.65092   -51.640104    354.50743    34015          399 
  831000    299.82645   -54.338429    371.29224    34032          416 
  832000    286.05865   -54.051081    358.01732    34034          418 
  833000     286.5968   -65.001906    364.44122    34043          427 
  834000    296.64367   -59.486756     366.3057    34031          415 
  835000    293.86738   -52.470269     373.4427    34043          427 
  836000    287.35626    -55.70995    342.65292    34016          400 
  837000    305.31526   -50.340469    367.07629    34020          404 
  838000    303.93113   -46.406676    361.54102    34015          399 
  839000    285.93856   -47.211244    355.56239    34034          418 
  840000     286.6545   -53.144539     362.2296    34040          424 
  841000    280.77994   -51.926312    356.35791    34041          425 
  842000    321.10342   -54.066656    402.63998    34037          421 
  843000    279.61568   -56.499807     345.1501    34030          414 
  844000    308.06801   -53.539183    381.49552    34032          416 
  845000    292.69558   -51.126067    338.25691    34004          388 
  846000    286.73994   -51.336018    345.07319    34020          404 
  847000    279.06776   -47.621391    329.25746    34012          396 
  848000    301.12851   -49.947051    352.46199    34009          393 
  849000    294.83562   -49.418332    327.52106    33989          373 
  850000    323.34642   -57.417114    374.22853    34005          389 
  851000    284.87284   -60.731033    367.51478    34049          433 
  852000    307.30101    -62.16748    346.32981    33994          378 
  853000     270.0356   -55.950623    313.16676    34005          389 
  854000    283.42796   -61.316821     349.7279    34030          414 
  855000    290.78309   -59.132446    373.48136    34047          431 
  856000    289.44134   -53.598311    376.74222    34053          437 
  857000    296.69617   -54.093295    372.08119    34037          421 
  858000    288.62148   -65.141641    359.97134    34034          418 
  859000    313.34944   -60.770939    374.31286    34017          401 
  860000    289.98228   -66.857413    370.64244    34045          429 
  861000    305.16595   -61.371729    360.45893    34012          396 
  862000    300.61241    -62.40258    386.30477    34047          431 
  863000    298.08253   -65.038848    404.37634    34070          454 
  864000    287.77839   -65.731229    388.65897    34068          452 
  865000    278.84722   -67.412161    369.76561    34061          445 
  866000    313.80996   -59.196846    427.92457    34074          458 
  867000    291.08669   -57.591164    385.01744    34060          444 
  868000    309.31624   -58.300006    419.14084    34070          454 
  869000    279.27789   -61.292621    353.29957    34040          424 
  870000    304.08757   -64.390533    375.23545    34030          414 
  871000     275.5853   -58.616681    344.05067    34034          418 
  872000    296.62133   -60.944031    379.94788    34046          430 
  873000    293.91281   -63.950876    375.27648    34044          428 
  874000    280.32681   -63.231287    356.60933    34043          427 
  875000    318.70671   -61.880256    390.15379    34027          411 
  876000    301.24676   -55.043935    361.97271    34020          404 
  877000    277.23059   -54.968256    356.79061    34048          432 
  878000    303.30618   -64.781364    394.38427    34052          436 
  879000    259.84688   -58.484344    312.13589    34019          403 
  880000    313.53357   -60.715567    376.73695    34020          404 
  881000    296.28946   -55.762396    375.53302    34041          425 
  882000    293.52565   -59.580219     388.4533    34060          444 
  883000    292.25789   -63.433724    361.88127    34032          416 
  884000    291.95701   -56.319036    376.15375    34049          433 
  885000    277.63512   -64.784043    375.89298    34071          455 
  886000    297.03311   -63.914017     388.2785    34055          439 
  887000    308.78055    -64.59628    386.50368    34036          420 
  888000    298.86764   -70.811626    389.68558    34054          438 
  889000    286.87832   -62.657259    361.30292    34039          423 
  890000    286.19551   -67.451346    347.82154    34024          408 
  891000    295.92372    -52.33211    398.41992    34067          451 
  892000    298.65596   -58.748852    363.76935    34025          409 
  893000    276.61151   -53.804659    325.70494    34011          395 
  894000    287.19973   -55.071837    355.07709    34031          415 
  895000    294.51131    -43.88293    359.74931    34026          410 
  896000    296.74236   -49.661973    346.96111    34009          393 
  897000    275.35925   -54.883373     337.9997    34027          411 
  898000    275.42013   -49.248686    322.71411    34007          391 
  899000    302.87913   -45.282701    346.61365    34000          384 
  900000    301.58627   -48.001409    368.54058    34025          409 
  901000    295.11003   -61.614101    365.42819    34031          415 
  902000    302.37516   -60.964763    373.75886    34031          415 
  903000    290.03603   -52.014718    369.81005    34044          428 
  904000    314.44956   -58.477998    401.37597    34045          429 
  905000    280.30127   -54.211613    362.18393    34050          434 
  906000    281.39277    -57.81818    364.00758    34050          434 
  907000    299.40332   -71.207791    392.42179    34056          440 
  908000    294.65348   -65.404955    351.38268    34017          401 
  909000    296.04942   -57.334274     366.3035    34029          413 
  910000    296.48848   -63.433554    359.01483    34020          404 
  911000    294.52673     -62.2831    386.37717    34055          439 
  912000    293.05868   -64.838867    381.05392    34053          437 
  913000    312.38422   -64.345226    430.49178    34079          463 
  914000    287.67356   -70.821823    390.59351    34072          456 
  915000     308.6157    -78.44896    424.98896    34078          462 
  916000    285.64561   -73.417236    388.96686    34071          455 
  917000    289.43652   -68.443882    392.46381    34070          454 
  918000    300.56157   -69.194787    373.51512    34033          417 
  919000    286.58459    -67.12228    362.99946    34041          425 
  920000    298.56894    -70.57528    376.03442    34039          423 
  921000    310.89638   -66.875121    375.10468    34021          405 
  922000    296.70242   -67.605664    375.19742    34041          425 
  923000    296.72348   -67.225522    367.41493    34032          416 
  924000    292.54641   -65.071293    389.09826    34063          447 
  925000    297.38318   -64.928803    401.98503    34070          454 
  926000    294.51923   -63.975504     386.3317    34056          440 
  927000    282.14591   -60.369157    331.87227    34009          393 
  928000    286.04785   -63.751479    337.20669    34012          396 
  929000    266.49719   -63.040825    319.98615    34019          403 
  930000    294.27697   -70.379297    368.50855    34035          419 
  931000    277.41546   -65.926177    351.03692    34041          425 
  932000    302.50033   -66.489568    401.03129    34061          445 
  933000     277.5901    -61.01687    345.21327    34034          418 
  934000    266.61726   -61.109624    324.28806    34022          406 
  935000    278.10079   -62.445137    377.14561    34070          454 
  936000     309.2377   -60.020933    408.86016    34058          442 
  937000    301.42799   -60.047036     376.9914    34036          420 
  938000    286.37263   -56.820552    359.19465    34036          420 
  939000    285.86464   -57.357494    341.61967    34016          400 
  940000    301.66098   -67.770885    379.72307    34038          422 
  941000    312.36977   -65.575203    387.87776    34033          417 
  942000    288.72232   -51.128029    380.94868    34059          443 
  943000    298.34465    -61.59311    406.56182    34073          457 
  944000    303.86328   -68.923997    405.46943    34063          447 
  945000    284.19608   -69.243253    356.65342    34037          421 
  946000    296.81833   -79.371716    384.93169    34052          436 
  947000     298.8221   -60.932227    380.86405    34044          428 
  948000    302.79403     -61.2379    345.42222    33999          383 
  949000     296.1115   -65.255535    376.88977    34042          426 
  950000    276.20078   -55.078484    357.07406    34050          434 
  951000    306.46149   -68.937537    407.61991    34062          446 
  952000    310.61758   -73.700312    428.31027    34079          463 
  953000    269.14505   -76.934671    364.96815    34070          454 
  954000    295.09641   -66.742411    376.13276    34044          428 
  955000    308.49864   -61.443461     380.1864    34029          413 
  956000    297.69621   -59.454691    373.71198    34037          421 
  957000    298.14041    -71.86848    362.06329    34024          408 
  958000    298.62002   -64.126127     389.4171    34054          438 
  959000    297.95312   -65.617526    379.48824    34044          428 
  960000    299.68549   -61.912692     392.1713    34054          438 
  961000    283.30446   -66.259768    365.13543    34048          432 
  962000    285.29615   -63.009637    369.49783    34051          435 
  963000    305.46584   -64.455605    376.20133    34030          414 
  964000    294.00453   -61.664316    360.58256    34028          412 
  965000    282.83681   -74.874526    362.22327    34046          430 
  966000      274.803   -70.016337     324.6356    34012          396 
  967000    293.14986   -58.735017    357.22424    34024          408 
  968000    310.98609   -53.765988    389.80737    34036          420 
  969000    297.94247   -65.351987    376.06046    34040          424 
  970000      293.609   -61.928201    361.53302    34029          413 
  971000    327.41094    -62.89931    415.41139    34041          425 
  972000     303.3146   -59.243697     366.7833    34022          406 
  973000    273.63365   -62.510285    333.13234    34025          409 
  974000    301.18576   -54.686574    370.50122    34028          412 
  975000    294.68475   -64.953515    377.74635    34047          431 
  976000    310.91663    -64.79533     383.5299    34030          414 
  977000    286.78761   -67.615895    378.65444    34056          440 
  978000    289.05133   -58.226868    349.06185    34022          406 
  979000    288.54399   -52.447208    350.29395    34024          408 
  980000     300.5404   -58.285097    367.38566    34026          410 
  981000    294.52749   -54.703874    362.37086    34029          413 
  982000    299.77601   -53.673231    347.23154    34005          389 
  983000    276.77078   -59.823979    353.75919    34045          429 
  984000    321.66303   -55.185101    420.82765    34053          437 
  985000    302.23792   -42.972411    351.89777    34006          390 
  986000    296.74248   -46.001583    389.23324    34055          439 
  987000    277.08825   -58.741581    358.63899    34051          435 
  988000     277.7032   -63.269224    365.41844    34058          442 
  989000    280.60094   -59.125787    339.14613    34022          406 
  990000    279.57979    -57.44321    331.17749    34014          398 
  991000    296.84018   -55.874139    347.12027    34009          393 
  992000    312.89254   -54.558234    394.11655    34037          421 
  993000    306.08703   -63.016672    400.67491    34055          439 
  994000    283.82944   -54.546817    349.69592    34029          413 
  995000    284.90241   -58.103676    353.00758    34032          416 
  996000    277.74366   -58.124022    331.57414    34016          400 
  997000    274.87827   -59.667581    329.16572    34018          402 
  998000    308.48866   -47.074429    367.49851    34016          400 
  999000    296.90505     -58.1257    343.00277    34003          387 
 1000000      275.854   -50.819011    328.28393    34016          400 
Loop time of 9291.97 on 5 procs for 1000000 steps with 34016 atoms

Performance: 9.298 ns/day, 2.581 hours/ns, 107.620 timesteps/s
99.6% CPU use with 5 MPI tasks x no OpenMP threads

MPI task timing breakdown:
Section |  min time  |  avg time  |  max time  |%varavg| %total
---------------------------------------------------------------
Pair    | 289.76     | 295.26     | 301.61     |  23.8 |  3.18
Neigh   | 5641.7     | 5801.4     | 6081.6     | 194.6 | 62.43
Comm    | 686.04     | 883.09     | 1119.7     | 550.7 |  9.50
Output  | 0.14336    | 0.14951    | 0.17359    |   3.1 |  0.00
Modify  | 2127.2     | 2215       | 2343       | 212.3 | 23.84
Other   |            | 97.06      |            |       |  1.04

Nlocal:    6803.2 ave 6863 max 6693 min
Histogram: 1 0 0 0 0 1 0 1 0 2
Nghost:    17326.8 ave 17581 max 17134 min
Histogram: 1 1 1 0 0 0 0 0 1 1
Neighs:    11176.4 ave 14646 max 8189 min
Histogram: 1 0 1 0 1 1 0 0 0 1

Total # of neighbors = 55882
Ave neighs/atom = 1.64282
Neighbor list builds = 47272
Dangerous builds = 0

compute		pe ggcmc pe/atom
variable	      x atom c_pe

compute         layers ggcmc chunk/atom bin/1d z lower 0.1 units box bound z -45 45

fix		4 ggcmc ave/chunk 10 100 1000 layers v_x file profile.density
run               3000000
Per MPI rank memory allocation (min/avg/max) = 6.989 | 7.003 | 7.018 Mbytes
Step c_mtem PotEng KinEng Atoms v_nH2 
 1000000      275.854   -50.819011    328.28393    34016          400 
 1001000    299.39083   -61.704904    363.61853    34024          408 
 1002000    288.61378   -54.949105     364.7337    34040          424 
 1003000     307.3306   -56.739258    363.20131    34012          396 
 1004000    307.33589   -60.751419    382.42359    34034          418 
 1005000    308.81692   -57.936872    427.27599    34080          464 
 1006000    276.82565   -62.987848    349.40818    34040          424 
 1007000    290.98906   -58.515259    356.67573    34028          412 
 1008000    296.90416   -63.984284    374.00721    34039          423 
 1009000      291.175   -71.006407    361.19693    34033          417 
 1010000     286.3916   -72.738168    391.61356    34073          457 
 1011000    305.29267   -67.696154    396.10631    34052          436 
 1012000    295.64526   -62.734558    405.11262    34076          460 
 1013000    295.28428   -60.751809    365.38838    34032          416 
 1014000    294.50721   -57.279816     336.2807    34000          384 
 1015000     284.8294   -57.363101    348.69235    34026          410 
 1016000    280.67941   -59.626971    358.01707    34044          428 
 1017000    309.97007    -58.94545    394.73466    34044          428 
 1018000    297.02204    -57.19474    385.06754    34050          434 
 1019000    300.51684   -54.625359    388.56275    34050          434 
 1020000    308.70184   -54.466151    373.80759    34023          407 
 1021000    280.76767   -61.974735    347.66658    34032          416 
 1022000    303.34432   -54.358768    372.07551    34027          411 
 1023000    291.78747   -49.878885    387.18737    34062          446 
 1024000    293.51206   -52.133377    364.21742    34033          417 
 1025000     280.9246   -57.015108    324.13219    34004          388 
 1026000    294.07127   -54.355946    366.00296    34033          417 
 1027000    294.15822   -55.795459    383.34272    34053          437 
 1028000    313.27575   -57.354767    380.74589    34024          408 
 1029000    303.66945   -52.254157    360.18037    34014          398 
 1030000    279.95406   -57.243901    352.56963    34038          422 
 1031000    291.81093   -49.801042    352.52895    34021          405 
 1032000    292.52757   -52.618958    353.55561    34022          406 
 1033000    289.13811    -56.49189    342.54004    34014          398 
 1034000    298.55163   -55.441359    359.58479    34021          405 
 1035000    296.92875   -60.477709    378.33559    34044          428 
 1036000    301.66583   -58.322729    377.73659    34037          421 
 1037000    292.31443   -61.753218    353.59695    34022          406 
 1038000    292.00789   -52.958814    360.75304    34030          414 
 1039000    290.59571   -52.591181    359.37389    34031          415 
 1040000    306.67814   -46.883832    363.39051    34014          398 
 1041000    305.04425   -57.622308     373.2596    34026          410 
 1042000    287.61063   -51.712276    340.38537    34012          396 
 1043000    291.91088   -53.723052    377.13936    34049          433 
 1044000    304.60156   -51.696547    365.89642    34019          403 
 1045000    299.89391   -49.061196    379.60885    34041          425 
 1046000    300.97448   -47.470397    349.57739    34006          390 
 1047000    282.47826   -47.573169    349.21236    34028          412 
 1048000    295.84281   -54.832549    402.36431    34068          452 
 1049000    291.07414   -52.586174    348.27027    34018          402 
 1050000     286.7021    -49.16641    335.88509    34010          394 
 1051000    297.42419   -49.983508    339.58546    33997          381 
 1052000    297.90681   -44.054644    371.22004    34035          419 
 1053000    292.92842   -48.143768    366.58141    34035          419 
 1054000    282.60039   -50.818422      344.693    34025          409 
 1055000    309.72927   -67.755516    382.96266    34031          415 
 1056000     295.3431   -54.379538    356.17657    34021          405 
 1057000    310.57492   -53.406929    375.19394    34021          405 
 1058000     305.4223   -53.601177     353.6359    34005          389 
 1059000    286.94956   -54.569596    341.30865    34016          400 
[...]
 3736000    284.97484   -51.584598    373.00437    34054          438 
 3737000    291.55247   -57.465848    367.11525    34039          423 
 3738000    294.96034   -60.165773     379.4166    34048          432 
 3739000    321.37355   -55.052388    415.29774    34048          432 
 3740000    291.23375    -55.17972    360.39386    34031          415 
 3741000     282.0852   -62.405733    363.75194    34049          433 
 3742000    295.69869   -57.718638    344.40822    34006          390 
 3743000     309.9749    -65.21102    386.52095    34034          418 
 3744000    285.97884   -68.803477    362.66009    34042          426 
 3745000    308.18798   -73.850624    427.54811    34081          465 
 3746000    285.70684   -56.591011     370.2773    34050          434 
 3747000    309.01075    -63.56521    369.87697    34018          402 
 3748000    312.80271   -60.372183    358.17513    34000          384 
 3749000    294.25566   -67.431016    367.65057    34036          420 
 3750000    278.04581   -66.668403    364.17539    34053          437 
 3751000    292.44912   -57.299723    392.67425    34066          450 
 3752000    305.35677   -66.400373    381.02351    34035          419 
 3753000    285.33441    -54.14193    348.71773    34026          410 
 3754000    304.87416    -51.89952    354.38495    34006          390 
 3755000    308.46622   -56.442656    374.54771    34023          407 
 3756000    306.32206   -67.027391    384.90539    34038          422 
 3757000     310.5956   -68.632729    397.98965    34046          430 
 3758000    299.73533   -57.112258    388.40302    34051          435 
 3759000    301.19026   -62.195604    384.45918    34045          429 
 3760000    281.39438   -54.735751    345.59771    34028          412 
 3761000    288.38891   -57.236306    375.12153    34050          434 
 3762000    295.69021   -54.941895    374.69254    34042          426 
 3763000    329.01128   -59.754958    422.88841    34048          432 
 3764000    289.75588   -53.643547    378.70143    34055          439 
 3765000    297.90805   -56.226549    362.58756    34024          408 
 3766000    300.50698   -52.771793    382.63436    34044          428 
 3767000    294.67089   -51.465434    357.52004    34023          407 
 3768000    273.87961   -52.555519    322.34425    34011          395 
 3769000    281.04568   -50.881134    350.06868    34033          417 
 3770000    297.14249   -45.339663    391.85575    34058          442 
 3771000    306.01748   -42.343815    358.99447    34009          393 
 3772000    270.79499   -53.137875    324.85567    34019          403 
 3773000    275.83233   -53.726734    321.18172    34006          390 
 3774000    284.55523   -57.006478    331.29505    34006          390 
 3775000    315.10738   -50.554836    389.00502    34030          414 
 3776000    292.13367    -55.07882    356.91312    34026          410 
 3777000    290.08352   -59.560711    351.57663    34022          406 
 3778000    314.58894   -63.680164    402.85604    34046          430 
 3779000     291.7804   -63.176045    351.65482    34020          404 
 3780000    296.46397   -55.186049    357.93183    34021          405 
 3781000    299.33813   -55.066033     379.8043    34041          425 
 3782000    284.43079   -49.883182    344.88436    34023          407 
 3783000    312.46714   -55.910665    385.13449    34030          414 
 3784000    277.17653   -59.007565    347.46646    34036          420 
 3785000    300.80132   -56.599387    357.01772    34014          398 
 3786000     297.1337   -59.964645    370.10997    34034          418 
 3787000    328.02032   -53.110799    426.20492    34052          436 
 3788000    294.13169   -53.242995    369.81055    34038          422 
 3789000    281.32612   -56.212901    348.05011    34031          415 
 3790000    293.82833   -54.961467    374.11661    34044          428 
 3791000    289.24563   -55.491966    358.54773    34031          415 
 3792000    287.41704   -50.797731    370.09895    34048          432 
 3793000    308.34622   -63.204048    391.17348    34042          426 
 3794000    296.49161   -62.663106    348.34635    34010          394 
 3795000    306.31883   -58.790099     383.7245    34036          420 
 3796000    284.93673   -68.743782    365.88297    34047          431 
 3797000     294.2001   -61.708992     356.6808    34023          407 
 3798000     309.9631   -63.696007    365.44766    34012          396 
 3799000    309.20142   -58.419797    397.62605    34047          431 
 3800000    273.62147   -55.008827    369.90712    34070          454 
 3801000    297.78728   -59.248833    366.41376    34029          413 
 3802000     289.5027    -61.17761    356.99246    34029          413 
 3803000    288.76642   -66.412647    397.53198    34078          462 
 3804000    304.31121   -58.364105    414.69457    34074          458 
 3805000    296.32019   -56.380123    377.87601    34044          428 
 3806000    294.94856   -47.489257    343.25629    34007          391 
 3807000    298.02279   -59.255847    360.20902    34021          405 
 3808000    286.98959   -61.344055    381.23463    34062          446 
 3809000    300.02444   -56.875005    384.74993    34045          429 
 3810000    285.04203   -56.548887    344.93131    34022          406 
 3811000    313.32064   -52.157183    373.95816    34015          399 
 3812000    299.95887   -51.672135     363.8397    34023          407 
 3813000    298.01963   -58.007648     375.3861    34039          423 
 3814000    300.00862   -58.097114    355.53829    34014          398 
 3815000    288.80758   -58.768768    360.37878    34035          419 
 3816000    282.77516    -61.28435    394.34583    34084          468 
 3817000    289.18066   -54.181391    347.74494    34019          403 
 3818000    275.81801   -55.688895    329.20027    34017          401 
 3819000    290.32327    -52.24524    362.88778    34036          420 
 3820000    278.78532   -53.614768    361.79925    34050          434 
 3821000     310.0824   -47.595703     390.8686    34039          423 
 3822000    282.29073   -55.937424    332.14102    34009          393 
 3823000    280.67022   -46.302912    345.11794    34028          412 
 3824000    303.74868   -48.116561    320.70578    33971          355 
 3825000    298.34487   -48.279021    344.18006    34004          388 
 3826000    295.89144   -45.811255    351.36508    34015          399 
 3827000     298.4583   -57.294815    357.79501    34018          402 
 3828000    287.65346   -59.300121    374.24532    34053          437 
 3829000    314.52277   -57.415663    376.06762    34017          401 
 3830000    295.60676   -55.507213    374.40113    34039          423 
 3831000    276.70569   -57.392596      329.176    34015          399 
 3832000    286.80067   -55.799433    354.38111    34028          412 
 3833000    287.19981   -52.053147    342.76993    34017          401 
 3834000    301.68549   -57.310012    387.43036    34047          431 
 3835000     297.8483   -61.642427    379.36805    34044          428 
 3836000     282.6039    -55.93181    356.64405    34040          424 
 3837000    304.01498   -52.527993    378.86423    34035          419 
 3838000    306.62924   -58.457516    358.81501    34008          392 
 3839000    282.31463   -58.308431    356.22961    34039          423 
 3840000    272.96552   -55.381269    342.35363    34037          421 
 3841000    298.04626   -61.018185    362.89508    34023          407 
 3842000    283.31586   -57.167868    358.60275    34041          425 
 3843000    288.14346   -63.985559    372.83723    34049          433 
 3844000    295.86233   -58.324368    353.35486    34017          401 
 3845000    295.09687   -61.053489    359.85998    34025          409 
 3846000    306.06061   -62.234203    371.26561    34023          407 
 3847000    287.19124   -67.058812    344.50138    34019          403 
 3848000    311.93188   -55.476531    379.74501    34025          409 
 3849000    306.87577   -64.409707     371.3982    34023          407 
 3850000    296.53416   -62.728289     378.9382    34045          429 
 3851000     293.2767   -58.478328    354.99101    34023          407 
 3852000    282.74813   -57.496617     316.0094    33991          375 
 3853000    297.75183    -59.56717     338.0382    33997          381 
 3854000    278.84711   -56.548285    343.69254    34030          414 
 3855000    307.69064   -57.806525    387.95285    34039          423 
 3856000    290.89792    -60.17888    335.24653    34003          387 
 3857000    283.88348   -64.001516    347.81982    34028          412 
 3858000    279.19085   -68.407357    370.26586    34061          445 
 3859000    293.43006   -59.694689    391.41049    34063          447 
 3860000    292.46486   -60.981934    379.65863    34052          436 
 3861000    273.45774   -61.859266     340.4951    34034          418 
 3862000    294.90963   -55.006382    372.63594    34040          424 
 3863000     296.1165   -63.615797     379.3797    34046          430 
 3864000    282.48014   -61.432193    362.99963    34047          431 
 3865000     308.8732   -65.280749    396.80688    34047          431 
 3866000    290.26202   -58.314726    381.18714    34057          441 
 3867000    295.18567   -57.626507    375.53077    34043          427 
 3868000    287.64844   -64.868035    347.59461    34021          405 
 3869000    275.06579   -62.874687    342.37445    34034          418 
 3870000    301.69567   -63.698555    391.86019    34050          434 
 3871000    281.03701   -65.731694    376.55382    34064          448 
 3872000    297.39513   -62.932689    402.71482    34071          455 
 3873000    281.77672   -63.252758    360.78948    34046          430 
 3874000    291.93339   -68.694198    369.18467    34040          424 
 3875000    303.35968   -60.341537    376.05109    34032          416 
 3876000    299.37405   -57.145402    358.36177    34018          402 
 3877000     308.3384   -55.259227    373.55627    34023          407 
 3878000    297.61418    -38.01368    354.88642    34017          401 
 3879000     285.2042   -55.998142    368.24494    34049          433 
 3880000    296.64206   -50.786507    375.57318    34041          425 
 3881000    290.01236   -55.348483     350.2396    34022          406 
 3882000    294.26729   -58.987742    363.25983    34031          415 
 3883000    297.92769   -54.698425    363.94157    34026          410 
 3884000    273.06142   -54.186558    330.64463    34021          405 
 3885000    290.27083   -44.394657    343.66368    34013          397 
 3886000     279.7433   -67.679628    346.67307    34030          414 
 3887000    281.19743   -53.714846    373.01201    34062          446 
 3888000    308.10463   -62.763693    370.86593    34020          404 
 3889000    276.07426   -59.251393    332.07409    34018          402 
 3890000    294.92946   -62.224705    389.71134    34059          443 
 3891000    309.97088   -69.727614    409.93426    34060          444 
 3892000    325.92715   -61.403232    414.83923    34043          427 
 3893000    292.19388   -55.822501    365.19517    34036          420 
 3894000    301.69297   -59.725374    379.63323    34039          423 
 3895000    285.66342    -58.81605    338.30669    34014          398 
 3896000    279.01164   -66.465201    348.02518    34033          417 
 3897000    277.83377   -61.196195    348.73733    34036          420 
 3898000    274.74071   -56.111168    356.82474    34052          436 
 3899000    293.02883   -50.977786    354.24868    34022          406 
 3900000    312.01997   -51.550992    373.56757    34018          402 
 3901000    295.71022   -64.720623    353.14577    34015          399 
 3902000    273.03923   -57.214117     333.1597    34024          408 
 3903000    307.10312   -53.828933    385.04419    34037          421 
 3904000    293.52774   -58.584604    375.66238    34046          430 
 3905000     296.3912   -60.264513    369.33345    34033          417 
 3906000     316.0903   -59.792167    398.74824    34040          424 
 3907000    282.16896   -60.340601    365.36263    34051          435 
 3908000    293.87266   -63.910922    371.71219    34041          425 
 3909000    295.37649   -66.344068    361.01886    34027          411 
 3910000    288.50142   -60.478653    360.61146    34036          420 
 3911000    287.37256   -62.038034    327.27459    33998          382 
 3912000    299.88801   -67.539178    392.47608    34055          439 
 3913000    297.05576   -65.489914    396.33967    34064          448 
 3914000    287.48845   -62.633478    366.04629    34044          428 
 3915000    289.64456   -54.149947    384.31188    34062          446 
 3916000    286.29258   -68.502558    357.54039    34035          419 
 3917000    304.33008   -63.198698    372.37632    34027          411 
 3918000    318.46518     -64.1774    387.68971    34024          408 
 3919000    272.84727   -60.807601    347.64857    34044          428 
 3920000    291.10136   -58.639763    375.92139    34050          434 
 3921000    303.14226   -59.202016    372.55531    34029          413 
 3922000    281.34148    -63.79669    343.32134    34026          410 
 3923000    310.09454   -69.170425     429.9872    34081          465 
 3924000    283.45608   -54.000996    364.03204    34047          431 
 3925000    286.29379   -62.844486    354.12007    34030          414 
 3926000    293.35536   -54.222705    354.88752    34022          406 
 3927000    290.51655   -58.142099    351.87976    34022          406 
 3928000    296.26989   -61.592636    357.17151    34019          403 
 3929000    297.41969   -55.826188    367.29628    34031          415 
 3930000    297.72189   -50.906118    400.81492    34067          451 
 3931000    307.74462   -54.524866    370.40935    34019          403 
 3932000    286.20641   -55.927753    356.90989    34035          419 
 3933000    307.82103    -55.07905     395.2745    34044          428 
 3934000    281.14616   -58.712541    334.54562    34016          400 
 3935000    290.28507   -55.180785    348.98626    34020          404 
 3936000     285.0875   -51.995469    357.02317    34036          420 
 3937000     300.6544   -65.568408    387.41364    34049          433 
 3938000    298.70683   -64.577899    402.86087    34069          453 
 3939000       282.14   -53.300999    318.29849    33995          379 
 3940000    286.61568   -52.026983    336.40623    34010          394 
 3941000    301.59189   -51.378079    364.17048    34021          405 
 3942000    277.87664    -58.66789    349.44354    34038          422 
 3943000    305.59089   -49.965475    377.47126    34030          414 
 3944000     300.2697   -51.499111    349.88793    34006          390 
 3945000    302.40508    -57.67028    342.55756    33997          381 
 3946000    287.14189   -53.117713    329.60623    34001          385 
 3947000     288.9737   -55.536343    326.28559    33993          377 
 3948000    286.66345    -46.25904    313.57607    33983          367 
 3949000    310.75209   -60.058484    363.25357    34008          392 
 3950000    302.47089   -51.691051    380.64681    34038          422 
 3951000    296.59058   -57.313183    395.02851    34063          447 
 3952000    295.86745   -59.756265    361.06655    34026          410 
 3953000    284.77442   -68.650408    341.36046    34019          403 
 3954000    297.36819   -60.144927    355.49735    34017          401 
 3955000    302.38919   -65.972144    377.50383    34032          416 
 3956000     293.5309   -63.185951    347.74428    34013          397 
 3957000    286.65449   -63.314807    342.40746    34016          400 
 3958000    324.75122    -67.78099     395.5238    34025          409 
 3959000    291.12735   -58.550824    348.05115    34017          401 
 3960000    302.35431   -57.610781     333.0301    33984          368 
 3961000     299.4224   -50.077442    349.09222    34008          392 
 3962000    305.36968   -47.240363    349.34518    34000          384 
 3963000    298.88296   -56.864948     356.6123    34016          400 
 3964000    300.11209    -56.24494    332.29143    33988          372 
 3965000    287.25367   -51.141728    328.93735    34000          384 
 3966000     292.5989   -51.630411    353.79012    34022          406 
 3967000    290.77721   -55.302345    335.06893    34002          386 
 3968000    280.91857   -51.532883    344.40163    34028          412 
 3969000    285.03707   -51.953581    359.42004    34039          423 
 3970000    292.00617   -48.981112    356.36921    34026          410 
 3971000    291.10882   -55.451402    373.32126    34046          430 
 3972000    288.83923   -63.185529    356.90728    34030          414 
 3973000    312.41953   -53.844038    376.67479    34020          404 
 3974000    281.80879   -60.569713    376.28447    34063          447 
 3975000    286.97255   -59.373257    369.87718    34048          432 
 3976000    280.73577   -56.109803    350.47509    34034          418 
 3977000    300.24615   -47.425881    368.19694    34028          412 
 3978000     269.5001   -44.330372    308.79587    34000          384 
 3979000    283.27067   -54.299723    325.38096    34000          384 
 3980000    309.60323   -52.626569    373.94663    34022          406 
 3981000    276.60287   -65.071453    330.69312    34018          402 
 3982000    259.90461   -65.143265    323.45735    34033          417 
 3983000    293.33283   -69.973237    379.53862    34051          435 
 3984000     298.7264   -59.318352    369.00035    34031          415 
 3985000    292.31752   -61.252243    349.93949    34017          401 
 3986000    283.49292   -66.025821    359.30785    34042          426 
 3987000    301.93037   -64.027811    388.36119    34048          432 
 3988000     294.1387   -66.674204    361.64305    34029          413 
 3989000     282.9811   -67.479962    362.02551    34046          430 
 3990000    290.22675   -66.380252    375.08524    34050          434 
 3991000    275.46269   -60.171814    361.55247    34057          441 
 3992000    299.88082    -57.60384    371.37567    34032          416 
 3993000    290.86561   -58.778061    371.53323    34044          428 
 3994000    307.55293   -59.748438    382.54735    34034          418 
 3995000    292.69455   -51.576154    346.15966    34013          397 
 3996000    294.83836   -56.016534    349.42907    34014          398 
 3997000    280.60781   -58.721152    371.00721    34060          444 
 3998000    306.37885   -55.095959    353.14194    34003          387 
 3999000    295.48537   -58.962817    370.81856    34036          420 
 4000000     311.1238   -63.105511    410.14183    34059          443 
Loop time of 27266.1 on 5 procs for 3000000 steps with 34059 atoms

Performance: 9.506 ns/day, 2.525 hours/ns, 110.027 timesteps/s
99.5% CPU use with 5 MPI tasks x no OpenMP threads

MPI task timing breakdown:
Section |  min time  |  avg time  |  max time  |%varavg| %total
---------------------------------------------------------------
Pair    | 886.65     | 915.9      | 958.05     |  79.1 |  3.36
Neigh   | 16163      | 16537      | 17353      | 334.3 | 60.65
Comm    | 2264.8     | 2865.8     | 3475.1     | 893.8 | 10.51
Output  | 0.48896    | 4.4492     | 5.4439     |  93.9 |  0.02
Modify  | 6406.4     | 6651.2     | 7014.4     | 346.7 | 24.39
Other   |            | 291.6      |            |       |  1.07

Nlocal:    6811.8 ave 6885 max 6700 min
Histogram: 1 0 0 0 0 2 0 0 1 1
Nghost:    17346 ave 17613 max 17169 min
Histogram: 2 0 1 0 0 0 1 0 0 1
Neighs:    12250.8 ave 13266 max 11076 min
Histogram: 1 0 1 0 0 0 1 1 0 1

Total # of neighbors = 61254
Ave neighs/atom = 1.79847
Neighbor list builds = 141386
Dangerous builds = 0

write_data        C100H82N2O5S2_gcmc4ns.data




Total wall time: 10:09:18
