LAMMPS data file via write_data, version 16 Mar 2018, timestep = 900000

 36676 atoms
 2040 bonds
 1020 angles
 0 dihedrals
 0 impropers
 17 atom types
 1 bond types
 1 angle types
 0 dihedral types
 0 improper types

0 199.869129 xlo xhi 
0 29.980369 ylo yhi  
-70  70 zlo zhi  

Masses

1 12.0112 # C # 0.72
2 15.9994 # O # -0.594
3 15.9994 # O # -0.531
4 12.0112 # C # -0.018
5 14.0067 # N # -0.481
6 12.0112 # C # -0.106
7 12.0112 # C # 0.08
8 15.9994 # O # -0.1595
9 15.9994 # O # -0.4506
10 12.0112 # C # -0.026
11 12.0112 # C # 0.3964
12 32.064 # S # -0.053
13 1.008 # H # 0.423
14 1.00797 # H # 0.053
15 1.00797 # H # 0.042
16 15.9994 # O in water # -0.8476
17 1.008 # H in water # 0.4238

 Atoms # full

1	1	1	0.72	131.373768	15.73852	41.382569
2	1	2	-0.594	130.729204	16.919462	41.191246
3	1	3	-0.531	131.833117	15.364026	42.46616
4	1	4	-0.018	131.36137	14.845393	40.221039
5	1	4	-0.1268	130.958755	15.243588	38.910962
6	1	4	0	131.211899	14.430591	37.828586
7	1	4	0.2405	131.954707	13.26981	37.96039
8	1	5	-0.481	132.466539	12.967479	39.190861
9	1	4	0.1137	132.0899	13.711859	40.225389
10	1	6	-0.106	130.713514	14.843858	36.465411
11	1	7	0.08	130.720341	13.709782	35.449297
12	1	6	-0.106	132.02818	13.023989	35.485529
13	1	6	-0.106	132.235363	12.364279	36.856408
14	1	8	-0.1595	129.64472	12.819237	35.804653
15	1	4	0.0265	128.456511	13.226638	35.161151
16	1	4	0.0265	128.295085	12.705792	33.835556
17	1	4	0	127.110941	13.048636	33.140104
18	1	4	-0.1268	126.271114	13.914889	33.779724
19	1	4	0.0265	126.465187	14.497451	35.013102
20	1	4	-0.1268	127.539621	14.124059	35.718037
21	1	9	-0.4506	125.568421	15.371018	35.469952
22	1	8	-0.1595	129.193475	11.908204	33.234717
23	1	10	-0.026	128.952465	10.617055	33.808731
24	1	6	-0.106	126.821396	12.544477	31.804985
25	1	11	0.3964	126.902714	13.63789	30.723036
26	1	7	-0.053	126.03579	13.478046	29.520696
27	1	6	-0.106	124.649621	13.925277	30.039466
28	1	4	0	123.96832	14.009969	28.778725
29	1	4	0	124.866657	14.330976	27.745968
30	1	7	-0.053	126.272459	14.342253	28.282958
31	1	3	-0.3964	127.573228	14.636287	30.865141
32	1	1	0.702	127.754036	13.958061	27.982688
33	1	3	-0.531	128.448023	14.768619	27.402351
34	1	2	-0.594	128.136677	12.745717	28.423678
35	1	4	0	124.357118	14.587476	56.44845
36	1	4	0	123.013142	14.458107	56.228901
37	1	4	-0.1268	122.144476	14.010777	27.27707
38	1	4	0.0265	122.595572	13.725293	28.517344
39	1	10	-0.159	125.291223	15.117778	55.377829
40	1	6	0.027	122.367138	14.663474	54.908711
41	1	8	-0.1595	121.97479	15.946862	54.535853
42	1	4	0.0265	120.649619	15.813505	53.955088
43	1	4	-0.1268	119.566724	16.340227	54.669011
44	1	4	-0.012	118.278823	16.293157	54.056604
45	1	4	0	118.135521	15.745375	52.769471
46	1	4	-0.1268	119.214505	15.28845	52.063615
47	1	4	-0.1268	120.439533	15.208596	52.737791
48	1	6	-0.106	116.824954	15.739756	51.982461
49	1	6	-0.041	116.212318	17.150544	51.900836
50	1	12	-0.053	114.601175	17.08587	51.137391
51	1	13	0.423	130.84979	17.603195	41.809556
52	1	14	0.1268	130.422326	16.21747	38.693544
53	1	14	0.1268	132.562142	13.418753	41.192382
54	1	14	0.053	131.405256	15.657786	36.172164
55	1	14	0.053	129.702895	15.335424	36.48824
56	1	14	0.053	130.494693	14.16043	34.483791
57	1	14	0.053	132.751465	13.860135	35.308673
58	1	14	0.053	132.149033	12.235588	34.685496
59	1	14	0.053	133.315885	11.956553	36.861004
60	1	14	0.053	131.609681	11.474246	36.823973
61	1	14	0.1268	125.356304	14.100287	33.236678
62	1	14	0.1268	127.669983	14.495453	36.767122
63	1	15	0.4241	125.998443	16.215804	35.503848
64	1	14	0.053	129.88471	9.949131	33.680616
65	1	14	0.053	128.197816	10.108333	33.193064
66	1	14	0.053	128.681046	10.671022	34.824074
67	1	14	0.053	125.807819	12.164411	31.675546
68	1	14	0.053	127.493581	11.716442	31.702942
69	1	14	0.053	126.038324	12.448897	29.30307
70	1	14	0.053	124.677876	14.906329	30.590326
71	1	14	0.053	124.219564	13.143572	30.692016
72	1	14	0.053	126.426593	15.341425	28.72925
73	1	13	0.423	129.034673	12.447835	28.219111
74	1	14	0.1268	121.073165	13.856588	26.996618
75	1	14	0.053	124.715364	15.916627	54.911649
76	1	14	0.053	125.596513	14.506195	54.612211
77	1	14	0.053	126.221795	15.566659	55.896313
78	1	14	0.053	121.540748	13.946797	54.802973
79	1	14	0.053	123.012594	14.266802	54.105884
80	1	14	0.1268	119.667049	16.666164	55.693223
81	1	14	0.1268	118.992747	14.81446	51.099748
82	1	14	0.1268	121.207331	14.892762	52.000105
83	1	14	0.053	116.031221	15.070854	52.458955
84	1	14	0.053	117.140457	15.460386	51.0173
85	1	14	0.053	116.981264	17.772817	51.369754
86	1	14	0.053	116.162854	17.502118	52.930329
87	1	9	-0.4506	121.723261	13.284607	29.416727
88	1	15	0.4241	122.181618	12.941952	30.215375
89	1	1	0.72	103.436827	4.703843	38.380131
90	1	2	-0.594	102.684483	4.053252	37.465879
91	1	3	-0.531	103.850681	5.788427	38.242758
92	1	4	-0.018	103.590762	3.895669	39.669681
93	1	4	-0.1268	102.945138	2.675527	39.766254
94	1	4	0	102.998124	1.895968	40.89532
95	1	4	0.2405	103.698008	2.522977	41.990908
96	1	5	-0.481	104.284233	3.698023	41.965381
97	1	4	0.1137	104.26733	4.437991	40.792401
98	1	6	-0.106	102.569971	0.505224	40.851872
99	1	7	0.08	103.012133	29.739463	42.110833
100	1	6	-0.106	102.807775	0.665784	43.320668
101	1	6	-0.106	103.801632	1.79248	43.269056
102	1	8	-0.1595	102.076864	28.676647	42.262164
103	1	4	0.0265	102.075043	27.772509	43.34887
104	1	4	0.0265	100.925447	26.93885	43.556861
105	1	4	0	100.847879	26.084487	44.668019
106	1	4	-0.1268	101.892271	26.143405	45.582548
107	1	4	0.0265	103.06324	26.866939	45.372092
108	1	4	-0.1268	103.149081	27.629622	44.233827
109	1	9	-0.4506	103.969675	26.980065	46.399423
110	1	8	-0.1595	99.928019	26.878521	42.592538
111	1	10	-0.026	99.01522	27.951886	42.84051
112	1	6	-0.106	99.712051	25.03449	44.735852
113	1	11	0.3964	98.718499	25.183867	45.902595
114	1	7	-0.053	98.359474	23.928329	46.68003
115	1	6	-0.106	99.460271	23.719199	47.72516
116	1	4	0	98.640087	23.114034	48.855279
117	1	4	0	97.29243	23.342728	48.717827
118	1	7	-0.053	97.07973	24.269059	47.547085
119	1	3	-0.3964	98.51596	26.310474	46.295216
120	1	1	0.702	95.896141	24.432839	46.513016
121	1	3	-0.531	94.738147	24.77956	46.710976
122	1	2	-0.594	96.336923	23.996736	45.30534
123	1	4	0	96.380642	22.969024	49.661768
124	1	4	0	96.895234	22.184366	50.656531
125	1	4	-0.1268	98.21061	22.015897	50.820963
126	1	4	0.0265	99.190498	22.531896	50.005984
127	1	10	-0.159	94.894591	23.174321	49.382167
128	1	6	0.027	96.06354	21.419773	51.608424
129	1	8	-0.1595	95.924859	22.482359	52.627109
130	1	4	0.0265	94.895687	22.165426	53.50812
131	1	4	-0.1268	94.168067	23.148671	54.155662
132	1	4	-0.012	93.306701	22.865113	55.255225
133	1	4	0	93.060589	21.560908	55.579566
134	1	4	-0.1268	93.795862	20.654993	54.892877
135	1	4	-0.1268	94.768792	20.857085	53.915839
136	1	6	-0.106	91.954638	21.318323	56.586312
137	1	6	-0.041	92.611183	21.573452	27.972306
138	1	12	-0.053	93.968096	20.456578	28.384163
139	1	13	0.423	102.451739	4.579645	36.722369
140	1	14	0.1268	102.506548	2.241889	38.902642
141	1	14	0.1268	104.692265	5.477703	40.723351
142	1	14	0.053	102.94775	0.009645	39.94075
143	1	14	0.053	101.483187	0.374014	40.856076
144	1	14	0.053	104.094545	29.370427	42.111
145	1	14	0.053	102.855865	0.130354	44.206728
146	1	14	0.053	101.735425	0.97378	43.259748
147	1	14	0.053	104.811118	1.293457	43.239215
148	1	14	0.053	103.849881	2.468365	44.158011
149	1	14	0.1268	101.920163	25.576804	46.537381
150	1	14	0.1268	104.059259	28.309568	44.035355
151	1	15	0.4241	104.291344	27.912582	46.265949
152	1	14	0.053	99.273625	28.434538	43.895487
153	1	14	0.053	97.939595	27.634448	42.856326
154	1	14	0.053	99.010272	28.790337	42.15101
155	1	14	0.053	100.114267	24.035072	44.77018
156	1	14	0.053	99.166302	25.036488	43.793122
157	1	14	0.053	98.290891	23.085993	46.065801
158	1	14	0.053	99.711515	24.814298	47.999272
159	1	14	0.053	100.459916	23.188438	47.434443
160	1	14	0.053	97.157272	25.224896	47.992101
161	1	13	0.423	95.823008	24.340229	44.613224
162	1	14	0.1268	98.597492	21.466679	51.682015
163	1	14	0.053	94.659476	24.192208	49.123157
164	1	14	0.053	94.346102	22.974051	50.309091
165	1	14	0.053	94.527499	22.55062	48.554957
166	1	14	0.053	96.55971	20.581731	52.04333
167	1	14	0.053	95.091542	21.188981	51.251007
168	1	14	0.1268	94.495866	24.132296	53.713802
169	1	14	0.1268	93.712737	19.623509	55.337686
170	1	14	0.1268	95.33805	19.928675	53.60714
171	1	14	0.053	91.593371	20.300786	56.552971
172	1	14	0.053	91.120198	22.068512	56.445548
173	1	14	0.053	91.812162	21.599106	28.762911
174	1	14	0.053	93.075205	22.620318	27.848272
175	1	9	-0.4506	100.526384	22.333843	50.271647
176	1	15	0.4241	101.066241	22.697049	49.585045
177	1	1	0.72	196.395533	15.548306	49.551935
178	1	2	-0.594	197.355613	15.816216	50.451872
179	1	3	-0.531	195.470584	14.752355	49.70093
180	1	4	-0.018	196.705587	16.309377	48.329526
181	1	4	-0.1268	197.820193	17.19356	48.403014
182	1	4	0	198.266088	17.721282	47.247434
183	1	4	0.2405	197.624411	17.392897	46.021917
184	1	5	-0.481	196.532323	16.634912	45.956711
185	1	4	0.1137	196.105439	16.029365	47.110773
186	1	6	-0.106	199.352563	18.791765	47.324856
187	1	7	0.08	0.211531	19.094863	45.993466
188	1	6	-0.106	199.690128	17.999144	44.968322
189	1	6	-0.106	198.16134	17.884087	44.746271
190	1	8	-0.1595	199.716504	20.400999	45.535011
191	1	4	0.0265	0.894456	21.288511	45.778149
192	1	4	0.0265	1.191115	22.267473	44.804113
193	1	4	0	2.174357	23.146979	45.063601
194	1	4	-0.1268	2.956092	23.139915	46.195522
195	1	4	0.0265	2.786718	22.095481	47.124757
196	1	4	-0.1268	1.631748	21.249157	46.956822
197	1	9	-0.4506	3.586473	21.93468	48.19925
198	1	8	-0.1595	0.504585	22.134575	43.624473
199	1	10	-0.026	199.216331	22.930327	43.738
200	1	6	-0.106	2.275584	24.354746	44.108116
201	1	11	0.3964	2.932397	23.880291	42.807698
202	1	7	-0.053	2.471659	24.539718	41.472726
203	1	6	-0.106	3.197887	25.870107	41.484015
204	1	4	0	3.27973	26.150333	40.012624
205	1	4	0	3.101815	24.940146	39.259139
206	1	7	-0.053	3.034545	23.779713	40.294446
207	1	3	-0.3964	3.867924	23.088905	42.831016
208	1	1	0.702	2.463921	22.304638	40.473603
209	1	3	-0.531	3.033498	21.287602	40.203077
210	1	2	-0.594	1.186002	22.32092	40.931591
211	1	4	0	3.015652	24.918067	37.877426
212	1	4	0	3.292794	26.132828	37.245341
213	1	4	-0.1268	3.479635	27.29969	37.97532
214	1	4	0.0265	3.471194	27.340482	39.366258
215	1	10	-0.159	2.667513	23.653867	37.189825
216	1	6	0.027	3.354783	26.100561	35.712969
217	1	8	-0.1595	3.308304	27.435095	35.189735
218	1	4	0.0265	4.407541	27.914976	34.535287
219	1	4	-0.1268	5.291222	27.138251	33.737747
220	1	4	-0.012	6.283789	27.717751	33.020008
221	1	4	0	6.658167	29.046646	33.202416
222	1	4	-0.1268	5.886404	29.737993	34.119395
223	1	4	-0.1268	4.755906	29.268464	34.658267
224	1	6	-0.106	7.817377	29.616936	32.552941
225	1	6	-0.041	9.167998	29.099103	33.175203
226	1	12	-0.053	9.138343	29.233595	34.958541
227	1	13	0.423	197.253096	15.317506	51.276849
228	1	14	0.1268	198.28272	17.574142	49.326973
229	1	14	0.1268	195.121987	15.489006	47.011706
230	1	14	0.053	0.174237	18.330855	48.121818
231	1	14	0.053	198.911365	19.761232	47.736907
232	1	14	0.053	1.334479	19.009307	46.120212
233	1	14	0.053	0.232264	17.014627	45.253489
234	1	14	0.053	0.231836	18.203683	43.969352
235	1	14	0.053	197.979233	17.16471	43.897641
236	1	14	0.053	197.842783	18.885336	44.496727
237	1	14	0.1268	3.827724	23.806508	46.224764
238	1	14	0.1268	1.407166	20.447781	47.69826
239	1	15	0.4241	3.101164	21.650838	49.104455
240	1	14	0.053	199.111364	23.446468	44.687967
241	1	14	0.053	198.366106	22.223362	43.694905
242	1	14	0.053	199.212719	23.594594	42.880946
243	1	14	0.053	2.954781	25.035447	44.67467
244	1	14	0.053	1.335266	24.892901	43.953129
245	1	14	0.053	1.37846	24.715609	41.296982
246	1	14	0.053	4.225684	25.732385	41.925665
247	1	14	0.053	2.842627	26.708972	42.131474
248	1	14	0.053	4.107408	23.612356	40.508621
249	1	13	0.423	0.766934	21.453183	40.964568
250	1	14	0.1268	3.602294	28.26555	37.45853
251	1	14	0.053	2.473667	22.977024	37.942574
252	1	14	0.053	3.568192	23.370149	36.632233
253	1	14	0.053	1.78601	23.742934	36.516915
254	1	14	0.053	2.365929	25.658379	35.321578
255	1	14	0.053	4.087409	25.477526	35.2107
256	1	14	0.1268	5.008518	26.065825	33.492331
257	1	14	0.1268	6.277956	0.772338	34.357758
258	1	14	0.1268	4.123357	29.872157	35.312039
259	1	14	0.053	7.760696	0.709066	32.632209
260	1	14	0.053	7.859884	29.370036	31.493708
261	1	14	0.053	10.089399	29.572474	32.70039
262	1	14	0.053	9.273834	27.964769	33.006276
263	1	9	-0.4506	3.540213	28.502425	40.047083
264	1	15	0.4241	4.331258	28.565607	40.606094
265	1	1	0.72	140.238194	20.558481	52.350394
266	1	2	-0.594	141.018616	21.734012	52.207156
267	1	3	-0.531	140.210262	19.904564	53.353508
268	1	4	-0.018	139.361889	20.29904	51.187785
269	1	4	-0.1268	139.233415	21.115884	50.129287
270	1	4	0	138.297044	20.804239	49.164852
271	1	4	0.2405	137.518377	19.596331	49.279297
272	1	5	-0.481	137.737185	18.808828	50.271957
273	1	4	0.1137	138.665462	19.10457	51.206564
274	1	6	-0.106	138.078463	21.873499	48.140796
275	1	7	0.08	136.634944	21.687387	47.718871
276	1	6	-0.106	136.238036	20.271677	47.340965
277	1	6	-0.106	136.332783	19.2329	48.453551
278	1	8	-0.1595	135.83917	22.090148	48.875391
279	1	4	0.0265	134.545793	22.576106	48.529296
280	1	4	0.0265	134.447881	23.857341	47.913871
281	1	4	0	133.212211	24.347942	47.552113
282	1	4	-0.1268	132.107446	23.589249	47.8245
283	1	4	0.0265	132.191944	22.372444	48.536817
284	1	4	-0.1268	133.411559	21.93363	48.956372
285	1	9	-0.4506	131.05691	21.714444	48.991788
286	1	8	-0.1595	135.643439	24.653787	47.757596
287	1	10	-0.026	135.836491	25.463156	48.841341
288	1	6	-0.106	133.174885	25.67485	46.840932
289	1	11	0.3964	133.761761	25.338397	45.47681
290	1	7	-0.053	134.798189	26.149688	44.779058
291	1	6	-0.106	136.188292	25.609174	45.000356
292	1	4	0	136.81861	26.051433	43.710542
293	1	4	0	135.916017	26.255491	42.702532
294	1	7	-0.053	134.521852	26.114268	43.29163
295	1	3	-0.3964	133.351475	24.391163	44.859112
296	1	1	0.702	133.072265	26.840274	43.130604
297	1	3	-0.531	132.443097	27.003868	42.155917
298	1	2	-0.594	132.611214	27.362394	44.368535
299	1	4	0	136.329249	26.715539	41.45184
300	1	4	0	137.68732	26.875392	41.216655
301	1	4	-0.1268	138.59603	26.674866	42.209346
302	1	4	0.0265	138.171881	26.14639	43.405901
303	1	10	-0.159	135.284363	26.710801	40.378403
304	1	6	0.027	138.143013	27.626354	39.969015
305	1	8	-0.1595	138.923447	28.692375	40.585694
306	1	4	0.0265	139.295277	29.609877	39.678579
307	1	4	-0.1268	139.723845	0.873927	40.171071
308	1	4	-0.012	140.158303	1.93617	39.385879
309	1	4	0	140.229339	1.743395	37.967812
310	1	4	-0.1268	139.910048	0.454045	37.545543
311	1	4	-0.1268	139.42479	29.428351	38.292166
312	1	6	-0.106	140.552357	2.831448	37.080459
313	1	6	-0.041	142.050639	2.660354	36.747738
314	1	12	-0.053	142.9218	2.129441	38.260923
315	1	13	0.423	141.562293	21.79905	52.979488
316	1	14	0.1268	139.785349	22.065032	49.882381
317	1	14	0.1268	138.639504	18.384722	52.073698
318	1	14	0.053	138.858635	21.737903	47.343487
319	1	14	0.053	138.168773	22.846948	48.639385
320	1	14	0.053	136.373487	22.354846	46.90114
321	1	14	0.053	136.864286	20.004527	46.508068
322	1	14	0.053	135.191103	20.460343	47.009185
323	1	14	0.053	136.44225	18.177667	48.088018
324	1	14	0.053	135.372996	19.274928	49.037657
325	1	14	0.1268	131.167185	24.02374	47.634222
326	1	14	0.1268	133.558442	21.079511	49.622228
327	1	15	0.4241	130.675354	21.113161	48.319736
328	1	14	0.053	136.261812	26.386193	48.629467
329	1	14	0.053	136.523149	24.890726	49.527145
330	1	14	0.053	134.9404	25.637549	49.397426
331	1	14	0.053	133.769562	26.548096	47.325719
332	1	14	0.053	132.078209	25.916264	46.550042
333	1	14	0.053	134.811096	27.183033	45.156998
334	1	14	0.053	136.156924	24.564015	45.070093
335	1	14	0.053	136.578617	26.185305	45.872449
336	1	14	0.053	134.237508	25.075331	43.011302
337	1	13	0.423	131.67463	27.761149	44.367156
338	1	14	0.1268	139.673158	26.855044	42.067476
339	1	14	0.053	135.140106	25.752459	39.906122
340	1	14	0.053	135.514883	27.362898	39.552846
341	1	14	0.053	134.306165	26.880105	40.805882
342	1	14	0.053	137.281563	28.015235	39.402588
343	1	14	0.053	138.780973	27.023031	39.247212
344	1	14	0.1268	139.601914	1.024568	41.240979
345	1	14	0.1268	139.888002	0.338277	36.461201
346	1	14	0.1268	139.162245	28.481105	37.853472
347	1	14	0.053	140.335721	3.826264	37.48685
348	1	14	0.053	140.017561	2.76568	36.163383
349	1	14	0.053	142.475091	3.606572	36.439389
350	1	14	0.053	142.212083	1.793583	36.080697
351	1	9	-0.4506	139.129433	25.79555	44.353559
352	1	15	0.4241	139.04313	26.379517	45.116347
353	1	1	0.72	169.006942	14.349844	38.376085
354	1	2	-0.594	168.595839	15.455298	37.673684
355	1	3	-0.531	168.637807	14.095661	39.485336
356	1	4	-0.018	170.09382	13.736537	37.54515
357	1	4	-0.1268	171.172204	13.210988	38.141504
358	1	4	0	172.22782	12.766247	37.390055
359	1	4	0.2405	172.210213	12.89622	35.993783
360	1	5	-0.481	171.133533	13.432262	35.381704
361	1	4	0.1137	170.083399	13.799105	36.113178
362	1	6	-0.106	173.345309	12.02584	38.024049
363	1	7	0.08	173.638662	10.907542	37.038165
364	1	6	-0.106	174.15867	11.492694	35.67182
365	1	6	-0.106	173.302035	12.551768	35.007878
366	1	8	-0.1595	174.682253	10.017594	37.436149
367	1	4	0.0265	174.29662	9.017572	38.361223
368	1	4	0.0265	173.428967	7.924657	38.13259
369	1	4	0	173.107581	7.031489	39.115452
370	1	4	-0.1268	173.754269	7.095838	40.322734
371	1	4	0.0265	174.647344	8.150424	40.536308
372	1	4	-0.1268	174.948971	9.054017	39.569902
373	1	9	-0.4506	175.172041	8.313198	41.781854
374	1	8	-0.1595	172.772237	7.745944	36.943083
375	1	10	-0.026	173.709426	7.582594	35.900258
376	1	6	-0.106	171.949062	6.076871	38.893649
377	1	11	0.3964	170.688357	6.900996	38.570361
378	1	7	-0.053	170.255654	7.971381	39.510151
379	1	6	-0.106	171.055699	9.286814	39.461579
380	1	4	0	170.023662	10.087906	40.146411
381	1	4	0	168.720461	9.677387	39.94955
382	1	7	-0.053	168.878429	8.453107	39.075407
383	1	3	-0.3964	170.075773	6.781609	37.523005
384	1	1	0.702	167.93553	7.249985	39.052833
385	1	3	-0.531	167.047375	7.074613	38.269024
386	1	2	-0.594	168.196582	6.408489	40.051977
387	1	4	0	167.634727	10.307874	40.558095
388	1	4	0	167.874269	11.237879	41.543714
389	1	4	-0.1268	169.226489	11.548459	41.837219
390	1	4	0.0265	170.309062	11.013267	41.111369
391	1	10	-0.159	166.254359	9.895996	40.122686
392	1	6	0.027	166.811266	12.09656	42.083703
393	1	8	-0.1595	166.984229	12.08976	43.509005
394	1	4	0.0265	166.336233	13.201307	44.116186
395	1	4	-0.1268	166.824368	13.567685	45.369275
396	1	4	-0.012	166.220139	14.71023	45.977402
397	1	4	0	165.074341	15.246667	45.405546
398	1	4	-0.1268	164.536407	14.738713	44.268428
399	1	4	-0.1268	165.113046	13.691098	43.636409
400	1	6	-0.106	164.480291	16.498683	45.975551
401	1	6	-0.041	164.555414	17.673139	44.999036
402	1	12	-0.053	166.335781	17.964231	44.73767
403	1	13	0.423	167.872892	15.978248	38.184026
404	1	14	0.1268	171.171127	13.051627	39.175732
405	1	14	0.1268	169.226707	14.242597	35.578288
406	1	14	0.053	173.043279	11.611684	38.998025
407	1	14	0.053	174.272864	12.590977	38.053442
408	1	14	0.053	172.771899	10.318692	37.006664
409	1	14	0.053	174.587863	10.655368	35.048091
410	1	14	0.053	174.914964	12.186111	36.057711
411	1	14	0.053	172.8598	12.085258	34.217902
412	1	14	0.053	173.977429	13.318672	34.615763
413	1	14	0.1268	173.493342	6.333903	41.088109
414	1	14	0.1268	175.471819	9.925333	39.972441
415	1	15	0.4241	175.572606	7.497226	42.155239
416	1	14	0.053	174.702308	7.657716	36.351711
417	1	14	0.053	173.467886	8.426789	35.331257
418	1	14	0.053	173.568147	6.666989	35.278988
419	1	14	0.053	171.844417	5.608153	39.886243
420	1	14	0.053	172.277531	5.328676	38.131769
421	1	14	0.053	170.242939	7.541224	40.534749
422	1	14	0.053	171.212271	9.675543	38.476989
423	1	14	0.053	172.012557	9.27366	39.928217
424	1	14	0.053	169.017869	8.752975	37.974305
425	1	13	0.423	167.44568	5.808517	40.358867
426	1	14	0.1268	169.487387	12.275255	42.595784
427	1	14	0.053	165.53064	9.572186	40.889134
428	1	14	0.053	166.290666	9.121737	39.347589
429	1	14	0.053	165.755603	10.766625	39.709954
430	1	14	0.053	165.760767	11.762714	41.815392
431	1	14	0.053	166.895795	13.158621	41.790839
432	1	14	0.1268	167.816374	13.229154	45.593892
433	1	14	0.1268	163.675638	15.089059	43.766158
434	1	14	0.1268	164.654009	13.340943	42.71279
435	1	14	0.053	165.028545	16.734293	46.883143
436	1	14	0.053	163.439734	16.228101	46.316712
437	1	14	0.053	164.172755	18.546184	45.489899
438	1	14	0.053	164.112848	17.468835	44.021507
439	1	9	-0.4506	171.553404	11.442642	41.493631
440	1	15	0.4241	172.113251	11.195054	40.77401
441	1	1	0.72	179.834347	10.219486	41.791123
442	1	2	-0.594	178.520264	9.775177	41.640108
443	1	3	-0.531	180.547598	9.927348	42.714202
444	1	4	-0.018	180.234238	11.000221	40.579504
445	1	4	-0.1268	179.297525	11.44789	39.634127
446	1	4	0	179.677175	12.079947	38.441134
447	1	4	0.2405	181.041074	12.376578	38.400202
448	1	5	-0.481	181.947988	12.115238	39.364562
449	1	4	0.1137	181.536359	11.473807	40.418142
450	1	6	-0.106	178.719878	12.502083	37.406517
451	1	7	0.08	179.41113	13.16455	36.146689
452	1	6	-0.106	180.626844	13.939786	36.522683
453	1	6	-0.106	181.695833	13.012627	37.189961
454	1	8	-0.1595	179.771122	12.202582	35.183992
455	1	4	0.0265	179.178715	12.707871	34.035202
456	1	4	0.0265	180.035371	13.349968	33.179118
457	1	4	0	179.489658	13.914966	32.008215
458	1	4	-0.1268	178.1445	13.83672	31.720915
459	1	4	0.0265	177.298301	13.249648	32.630431
460	1	4	-0.1268	177.81818	12.64601	33.782488
461	1	9	-0.4506	175.917292	13.241448	32.460208
462	1	8	-0.1595	181.375585	13.348504	33.46562
463	1	10	-0.026	182.054864	12.082298	33.105765
464	1	6	-0.106	180.545888	14.447359	31.104281
465	1	11	0.3964	179.967177	15.231681	29.980365
466	1	7	-0.053	179.859687	14.615774	28.588862
467	1	6	-0.106	178.457779	14.785159	28.028965
468	1	4	0	178.71022	14.386589	56.586015
469	1	4	0	180.036734	14.738792	56.308297
470	1	7	-0.053	180.819797	15.157039	27.556953
471	1	3	-0.3964	179.549668	16.333854	30.213898
472	1	1	0.702	182.18747	14.965604	28.120458
473	1	3	-0.531	183.161386	15.632872	28.006891
474	1	2	-0.594	182.340886	13.781146	28.730719
475	1	4	0	180.599713	14.593287	55.066902
476	1	4	0	179.815655	14.052485	54.029622
477	1	4	-0.1268	178.583663	13.498212	54.325637
478	1	4	0.0265	177.989141	13.706192	55.56197
479	1	10	-0.159	181.873858	15.243264	54.675575
480	1	6	0.027	180.28927	13.909284	52.621932
481	1	8	-0.1595	180.968428	12.689994	52.582941
482	1	4	0.0265	181.130573	12.228799	51.258378
483	1	4	-0.1268	181.365285	13.118247	50.219652
484	1	4	-0.012	181.506702	12.618051	48.955903
485	1	4	0	181.461196	11.232452	48.707999
486	1	4	-0.1268	181.098964	10.390868	49.741767
487	1	4	-0.1268	180.989734	10.865871	51.02628
488	1	6	-0.106	181.72465	10.785727	47.314979
489	1	6	-0.041	181.642013	11.913198	46.253846
490	1	12	-0.053	182.560953	13.377304	46.88013
491	1	13	0.423	178.308084	9.186795	42.32596
492	1	14	0.1268	178.20134	11.210353	39.699579
493	1	14	0.1268	182.22739	11.449892	41.23615
494	1	14	0.053	178.179685	13.279726	37.833285
495	1	14	0.053	178.121983	11.717051	37.036313
496	1	14	0.053	178.598146	13.804812	35.694711
497	1	14	0.053	180.388086	14.669077	37.279125
498	1	14	0.053	181.034441	14.51793	35.698264
499	1	14	0.053	182.587908	13.67611	37.559878
500	1	14	0.053	182.051448	12.323606	36.336755
501	1	14	0.1268	177.76966	14.251347	30.763575
502	1	14	0.1268	177.126669	12.066112	34.480572
503	1	15	0.4241	175.728816	13.994323	31.820398
504	1	14	0.053	182.629979	11.664914	33.937576
505	1	14	0.053	182.713386	12.383386	32.259869
506	1	14	0.053	181.32067	11.369668	32.868825
507	1	14	0.053	181.071604	13.541653	30.706846
508	1	14	0.053	181.121773	15.177178	31.693414
509	1	14	0.053	180.000224	13.505608	28.715716
510	1	14	0.053	178.143154	15.88708	28.10523
511	1	14	0.053	177.737291	14.116097	28.635382
512	1	14	0.053	180.785901	16.281266	27.435181
513	1	13	0.423	183.214138	13.620647	29.023241
514	1	14	0.1268	178.07432	12.945632	53.555176
515	1	14	0.053	182.598733	14.45632	54.346781
516	1	14	0.053	182.361063	15.787908	55.433056
517	1	14	0.053	181.747561	15.934112	53.876652
518	1	14	0.053	181.063061	14.765895	52.329577
519	1	14	0.053	179.451124	13.848565	51.955703
520	1	14	0.1268	181.330612	14.290269	50.309252
521	1	14	0.1268	180.97831	9.363147	49.403646
522	1	14	0.1268	180.739554	10.178251	51.930719
523	1	14	0.053	180.980821	9.997195	47.11978
524	1	14	0.053	182.69513	10.348036	47.135993
525	1	14	0.053	180.587611	12.204851	46.058951
526	1	14	0.053	182.062054	11.617902	45.261182
527	1	9	-0.4506	176.700583	13.312419	55.795553
528	1	15	0.4241	176.460006	12.507001	55.330912
529	1	1	0.72	93.069596	28.952977	34.989788
530	1	2	-0.594	93.074549	29.442759	36.238956
531	1	3	-0.531	92.189681	28.327473	34.496451
532	1	4	-0.018	94.408638	29.204807	34.316382
533	1	4	-0.1268	95.567841	29.421663	34.975983
534	1	4	0	96.727221	29.791329	34.307057
535	1	4	0.2405	96.645586	29.846242	32.913702
536	1	5	-0.481	95.525065	29.616631	32.268345
537	1	4	0.1137	94.452796	29.340519	32.919719
538	1	6	-0.106	98.066778	29.875711	35.110687
539	1	7	0.08	99.219529	29.897015	34.031441
540	1	6	-0.106	98.890334	0.852999	32.870463
541	1	6	-0.106	97.805903	0.177136	32.029354
542	1	8	-0.1595	100.452061	0.367889	34.598847
543	1	4	0.0265	101.403731	29.353281	34.493948
544	1	4	0.0265	102.221195	29.241882	35.598763
545	1	4	0	103.298175	28.346762	35.5591
546	1	4	-0.1268	103.610489	27.679174	34.409015
547	1	4	0.0265	102.751628	27.749248	33.335659
548	1	4	-0.1268	101.634219	28.636358	33.368538
549	1	9	-0.4506	102.990656	27.036216	32.171034
550	1	8	-0.1595	101.926441	29.881263	36.77658
551	1	10	-0.026	101.05022	29.06024	37.529947
552	1	6	-0.106	104.314657	28.207683	36.579524
553	1	11	0.3964	105.264091	29.364961	36.323435
554	1	7	-0.053	105.430214	0.501007	37.327366
555	1	6	-0.106	106.143984	0.01579	38.622573
556	1	4	0	106.629568	1.314902	39.198826
557	1	4	0	106.836927	2.15659	38.126491
558	1	7	-0.053	106.313462	1.600611	36.801404
559	1	3	-0.3964	105.956559	29.424812	35.344055
560	1	1	0.702	105.538433	2.384428	35.682462
561	1	3	-0.531	106.011007	3.216984	34.918711
562	1	2	-0.594	104.323138	1.889564	35.657906
563	1	4	0	107.506523	3.300011	38.319696
564	1	4	0	107.591972	3.789002	39.628445
565	1	4	-0.1268	107.318591	2.970666	40.712015
566	1	4	0.0265	106.814872	1.717586	40.517363
567	1	10	-0.159	108.078854	4.082381	37.096805
568	1	6	0.027	108.152839	5.169415	39.985197
569	1	8	-0.1595	109.537642	5.262921	40.225216
570	1	4	0.0265	109.859469	6.59998	40.231477
571	1	4	-0.1268	110.16795	7.249723	39.056289
572	1	4	-0.012	110.54381	8.610838	39.097115
573	1	4	0	110.682372	9.323668	40.265337
574	1	4	-0.1268	110.281016	8.659955	41.399475
575	1	4	-0.1268	109.853387	7.333101	41.413814
576	1	6	-0.106	111.268934	10.715226	40.096934
577	1	6	-0.041	111.094691	11.015539	38.530365
578	1	12	-0.053	111.292991	9.508463	37.507759
579	1	13	0.423	92.212454	29.573313	36.602116
580	1	14	0.1268	95.522721	29.53806	36.114467
581	1	14	0.1268	93.531359	29.231152	32.257274
582	1	14	0.053	98.056739	29.033719	35.855414
583	1	14	0.053	98.194287	0.901156	35.604681
584	1	14	0.053	99.322613	28.866447	33.726153
585	1	14	0.053	99.735052	0.794246	32.116142
586	1	14	0.053	98.660642	1.84647	33.228747
587	1	14	0.053	98.128472	29.260181	31.540818
588	1	14	0.053	97.467909	0.922609	31.273072
589	1	14	0.1268	104.534634	27.032622	34.398996
590	1	14	0.1268	100.957082	28.834095	32.540271
591	1	15	0.4241	103.918411	27.113047	31.938528
592	1	14	0.053	101.618996	28.433642	38.29359
593	1	14	0.053	100.562488	28.384452	36.814438
594	1	14	0.053	100.215503	29.660235	38.031306
595	1	14	0.053	104.832028	27.247804	36.454609
596	1	14	0.053	103.996648	28.210004	37.62552
597	1	14	0.053	104.456241	0.891431	37.696062
598	1	14	0.053	106.98797	29.296025	38.345365
599	1	14	0.053	105.561173	29.443273	39.377964
600	1	14	0.053	107.157645	1.260157	36.205123
601	1	13	0.423	103.722467	2.287866	35.048642
602	1	14	0.1268	107.410813	3.218485	41.780643
603	1	14	0.053	108.269336	3.319121	36.286203
604	1	14	0.053	108.962156	4.711614	37.212733
605	1	14	0.053	107.263801	4.674463	36.651058
606	1	14	0.053	107.571461	5.529092	40.831891
607	1	14	0.053	107.957844	5.838591	39.196537
608	1	14	0.1268	110.072027	6.677422	38.080505
609	1	14	0.1268	110.187267	9.208101	42.38619
610	1	14	0.1268	109.381782	6.96027	42.390118
611	1	14	0.053	112.364633	10.764455	40.392281
612	1	14	0.053	110.767059	11.45914	40.760259
613	1	14	0.053	111.839229	11.748274	38.173715
614	1	14	0.053	110.013416	11.30585	38.383485
615	1	9	-0.4506	106.465288	0.825748	41.498646
616	1	15	0.4241	105.922937	0.180888	41.140761
617	1	1	0.72	137.081014	11.174014	30.11659
618	1	2	-0.594	136.739919	12.274285	30.918736
619	1	3	-0.531	137.736381	10.292914	30.533603
620	1	4	-0.018	136.295368	11.299521	28.887608
621	1	4	-0.1268	135.868141	12.529123	28.41562
622	1	4	0	135.245015	12.605232	27.193103
623	1	4	0.2405	134.964724	11.470019	56.502018
624	1	5	-0.481	135.206465	10.237988	27.029388
625	1	4	0.1137	136.000464	10.120397	28.121474
626	1	6	-0.106	134.77968	13.874496	56.490673
627	1	7	0.08	135.011219	13.917854	54.971411
628	1	6	-0.106	135.260169	12.51423	54.371874
629	1	6	-0.106	134.294129	11.508928	55.165264
630	1	8	-0.1595	133.798286	14.462197	54.474094
631	1	4	0.0265	133.98456	15.572023	53.662362
632	1	4	0.0265	133.148834	16.685888	53.799973
633	1	4	0	133.254889	17.743229	52.846717
634	1	4	-0.1268	134.183199	17.753305	51.890376
635	1	4	0.0265	135.162604	16.780813	51.904215
636	1	4	-0.1268	135.064661	15.6796	52.753846
637	1	9	-0.4506	136.163429	16.733126	51.017893